/*--------------------------------*- C++ -*----------------------------------*\
  =========                 |
  \\      /  F ield         | OpenFOAM: The Open Source CFD Toolbox
   \\    /   O peration     | Website:  https://openfoam.org
    \\  /    A nd           | Version:  10
     \\/     M anipulation  |
\*---------------------------------------------------------------------------*/
FoamFile
{
    format      ascii;
    class       volScalarField;
    location    "0.3";
    object      p;
}
// * * * * * * * * * * * * * * * * * * * * * * * * * * * * * * * * * * * * * //

dimensions      [0 2 -2 0 0 0 0];

internalField   nonuniform List<scalar> 
4800
(
-5.40037e-11
-5.74385e-05
3.34145e-05
6.46792e-05
0.00022586
0.000306871
0.000485096
0.000624344
0.000640309
0.000989589
0.00112739
0.00110083
0.00127159
0.00139398
0.00162732
0.00200548
0.00250088
0.00291317
0.00313496
0.00356404
4.83221e-06
-6.17785e-05
3.4625e-05
5.99956e-05
0.000229822
0.000302287
0.000486075
0.00062012
0.000643717
0.000977832
0.00113537
0.00109885
0.0012784
0.00139399
0.00163178
0.00200118
0.0024678
0.00282784
0.00297655
0.00321413
6.01875e-06
-6.46095e-05
3.4288e-05
5.80311e-05
0.000230408
0.000301256
0.00048773
0.000619301
0.000642916
0.000971849
0.00113849
0.00110143
0.00128032
0.00139791
0.0016324
0.00198576
0.00240926
0.00271194
0.00279796
0.00295758
9.61978e-06
-6.88129e-05
3.43239e-05
5.48026e-05
0.000231166
0.000300771
0.0004868
0.000621813
0.000637645
0.000984461
0.00113148
0.00110893
0.00127962
0.00140142
0.00162811
0.00195497
0.00233915
0.00258738
0.00261309
0.00272767
1.1993e-05
-7.27244e-05
3.34047e-05
5.27261e-05
0.000230674
0.000302073
0.000483494
0.000626527
0.000629149
0.000987886
0.00112704
0.00111289
0.00128297
0.00139712
0.00162005
0.00190847
0.00224956
0.00246417
0.00242778
0.00249275
1.44902e-05
-7.60602e-05
3.10642e-05
5.18535e-05
0.000227577
0.00030597
0.000477743
0.000634038
0.000620634
0.000985064
0.00112882
0.0011108
0.00128678
0.00138656
0.0015976
0.00185447
0.00214324
0.00233352
0.00225136
0.00225893
1.6698e-05
-7.88085e-05
2.71635e-05
5.20918e-05
0.000222672
0.000311077
0.000470527
0.000640709
0.000615134
0.000975584
0.0011377
0.00110453
0.0012862
0.00137104
0.00155938
0.00179793
0.0020261
0.00218759
0.00208708
0.00203902
1.80381e-05
-7.98939e-05
2.10933e-05
5.36845e-05
0.000215519
0.000317441
0.000465151
0.000642347
0.000616388
0.000960412
0.0011422
0.00109834
0.00127766
0.00134872
0.00150777
0.00173626
0.00190612
0.0020264
0.00192708
0.00183687
1.82395e-05
-7.90066e-05
1.31118e-05
5.52589e-05
0.000208274
0.000321226
0.000462478
0.000639881
0.000619937
0.000946667
0.00114059
0.00109065
0.00126398
0.00131883
0.00143984
0.00166772
0.00179403
0.00185692
0.00175817
0.00164848
1.68689e-05
-7.5569e-05
3.3357e-06
5.61722e-05
0.000202055
0.00032093
0.000463864
0.000634847
0.000619073
0.000938431
0.00113659
0.00107091
0.00124214
0.00128877
0.00135685
0.00158541
0.00169294
0.00168878
0.00157589
0.00146746
1.35781e-05
-6.94819e-05
-6.87621e-06
5.35573e-05
0.000198786
0.000316231
0.00046526
0.000633466
0.000613406
0.000928747
0.00113644
0.00103899
0.00120245
0.00126312
0.00126746
0.00147905
0.00159736
0.00153499
0.00138618
0.00128389
8.04739e-06
-6.05791e-05
-1.59445e-05
4.59544e-05
0.000198548
0.000307665
0.000462961
0.000637545
0.000604039
0.000904849
0.00114039
0.00100695
0.00113706
0.00123363
0.00119028
0.0013541
0.00149343
0.00140073
0.00120146
0.00109076
2.32137e-07
-5.01963e-05
-2.13864e-05
3.13334e-05
0.000198262
0.000302681
0.000454173
0.000644346
0.000601583
0.000864421
0.00113686
0.00098631
0.0010485
0.00118054
0.0011255
0.00122438
0.00137121
0.00127947
0.00103549
0.000896129
-9.48701e-06
-4.03023e-05
-2.14215e-05
1.27962e-05
0.000193454
0.000303064
0.000438917
0.000646738
0.000609152
0.000809373
0.00110931
0.000974746
0.000959985
0.00110177
0.00106169
0.00109898
0.00123397
0.00116176
0.000891166
0.000712319
-2.02809e-05
-3.32203e-05
-1.49996e-05
-6.69421e-06
0.000179095
0.000326424
0.00042309
0.000635916
0.000625444
0.000762873
0.00105495
0.000954947
0.000878212
0.00100575
0.000992358
0.000981165
0.00108738
0.00103916
0.000763441
0.00054538
-3.13289e-05
-3.0481e-05
-3.64275e-06
-2.13219e-05
0.000152344
0.000329682
0.000414651
0.000608583
0.000634778
0.000730063
0.000982941
0.000915106
0.00079868
0.000899775
0.000918771
0.000875976
0.000935464
0.000906892
0.000646196
0.000397252
-4.15076e-05
-3.29858e-05
8.63521e-06
-2.60339e-05
0.000113662
0.000323728
0.000415936
0.000570813
0.000625814
0.000708852
0.000913268
0.000855458
0.000710946
0.000783629
0.000838244
0.000787763
0.000788773
0.000761374
0.000532938
0.000267011
-5.04331e-05
-4.07762e-05
1.69845e-05
-1.96255e-05
7.256e-05
0.000299975
0.000423346
0.000540587
0.000596012
0.00067678
0.000847681
0.000791425
0.000615266
0.00065085
0.000743324
0.000713087
0.000665228
0.00061079
0.000412209
0.000152944
-5.81844e-05
-5.15077e-05
1.7797e-05
1.27205e-06
4.05497e-05
0.00025338
0.000420018
0.000523047
0.000556338
0.000626671
0.000779508
0.000728064
0.000522552
0.000505862
0.000619629
0.000639663
0.000572568
0.000472373
0.00028182
4.74881e-05
-6.50887e-05
-6.34954e-05
8.94094e-06
1.92512e-05
2.37736e-05
0.000190309
0.00039084
0.000514352
0.000526368
0.00056101
0.000692366
0.000660565
0.000441988
0.000362126
0.000471006
0.000543988
0.000497069
0.000362195
0.000157653
-6.10954e-05
-7.24132e-05
-7.39458e-05
-9.71149e-06
3.12344e-05
2.50152e-05
0.000131241
0.000329958
0.00048938
0.000508621
0.000501284
0.000587544
0.000571028
0.000368626
0.000237901
0.000312176
0.0004242
0.000411557
0.00027414
5.16652e-05
-0.000173944
-8.15251e-05
-8.23095e-05
-3.43493e-05
2.86966e-05
3.90557e-05
8.84901e-05
0.00024194
0.000428993
0.000493543
0.000463119
0.000480895
0.000455294
0.000279862
0.000130325
0.000167585
0.000289321
0.00031307
0.000189141
-4.13224e-05
-0.00028279
-9.34215e-05
-8.91813e-05
-5.77477e-05
9.00748e-06
5.01885e-05
6.80218e-05
0.000154361
0.000329442
0.000448589
0.000444572
0.000403335
0.000324286
0.000160429
1.98358e-05
3.69207e-05
0.000160531
0.000213773
0.000105023
-0.000133327
-0.000386075
-0.000108592
-9.64003e-05
-7.66989e-05
-2.61797e-05
4.40699e-05
6.75451e-05
8.5749e-05
0.000200306
0.000356824
0.000417697
0.000360105
0.000216889
1.82428e-05
-0.000120879
-9.66544e-05
3.96618e-05
0.000124171
3.07602e-05
-0.000216324
-0.000488233
-0.000126739
-0.000107045
-9.07078e-05
-6.63116e-05
1.44499e-05
6.71572e-05
4.51014e-05
7.50387e-05
0.000216343
0.000347224
0.000338587
0.000154276
-0.000110452
-0.000287146
-0.000263448
-9.123e-05
3.93311e-05
-2.18011e-05
-0.000272023
-0.000578588
-0.000146708
-0.000123286
-0.000102136
-0.000102759
-3.92395e-05
4.74638e-05
3.03203e-05
-2.24425e-05
4.90112e-05
0.000219389
0.00029394
0.000135062
-0.000188974
-0.000447745
-0.000463404
-0.00026714
-6.37707e-05
-5.99379e-05
-0.000289293
-0.000634039
-0.000167545
-0.000145667
-0.000117065
-0.000132564
-0.000104404
-1.10377e-06
1.70177e-05
-8.39807e-05
-0.000106349
4.02501e-05
0.000191585
0.000119758
-0.000210124
-0.000557362
-0.000667967
-0.00049234
-0.000224273
-0.000117123
-0.000283799
-0.000635294
-0.000189157
-0.000173841
-0.000140398
-0.000156349
-0.000166475
-7.82869e-05
-1.84657e-05
-0.00011402
-0.000224324
-0.000155186
2.87152e-05
6.11819e-05
-0.000198714
-0.000596215
-0.000825549
-0.000740283
-0.000452106
-0.000241658
-0.000297393
-0.000596016
-0.000212143
-0.000205523
-0.000173542
-0.000180454
-0.000219553
-0.00017123
-8.60764e-05
-0.000142214
-0.000299544
-0.000327423
-0.000178851
-6.24489e-05
-0.000208541
-0.000579609
-0.0009036
-0.000950801
-0.000723945
-0.000449452
-0.000375798
-0.000565319
-0.000237663
-0.000238998
-0.000215967
-0.000212571
-0.000263929
-0.000261286
-0.000183027
-0.00019246
-0.000343699
-0.000454706
-0.000384494
-0.000244916
-0.000276713
-0.000558748
-0.00091105
-0.00108105
-0.000975782
-0.000715737
-0.000541488
-0.000601276
-0.000266915
-0.000273911
-0.000264413
-0.000255936
-0.000304406
-0.000340168
-0.000295306
-0.000273258
-0.000386955
-0.000538881
-0.00055578
-0.000451788
-0.000409191
-0.000578047
-0.000889447
-0.00113298
-0.00115442
-0.000979349
-0.000777488
-0.000725466
-0.000300583
-0.000310794
-0.000314865
-0.000309632
-0.000349719
-0.000408035
-0.000403921
-0.000378665
-0.000449506
-0.00059748
-0.000682671
-0.000642691
-0.000584682
-0.000658395
-0.000886068
-0.00113638
-0.00125306
-0.0011865
-0.00102612
-0.000919799
-0.00033867
-0.000350392
-0.00036556
-0.000370616
-0.000404058
-0.000468935
-0.000500502
-0.000494395
-0.000535706
-0.000656885
-0.000772271
-0.000796632
-0.000763854
-0.000786244
-0.000929674
-0.00113845
-0.0012954
-0.00132171
-0.00123718
-0.00113891
-0.00038045
-0.000393166
-0.000416338
-0.000434154
-0.000466341
-0.000529732
-0.000584806
-0.000605095
-0.000637413
-0.000729628
-0.000845137
-0.000913524
-0.000921246
-0.000933259
-0.00101684
-0.00116958
-0.001322
-0.00140242
-0.0013915
-0.00133557
-0.000424827
-0.000438862
-0.000467403
-0.00049697
-0.00053337
-0.000594029
-0.000660294
-0.000704122
-0.000742915
-0.000815585
-0.000917948
-0.00100472
-0.00104803
-0.00107303
-0.00112847
-0.00123444
-0.00136109
-0.00145895
-0.00149834
-0.00148979
-0.000470537
-0.000486347
-0.000518601
-0.000557546
-0.000601029
-0.000660856
-0.000731199
-0.000791266
-0.000841785
-0.00090691
-0.000995538
-0.00108496
-0.00115017
-0.00119364
-0.00124302
-0.00132031
-0.00141988
-0.00151386
-0.00157725
-0.00160517
-0.000516009
-0.000533886
-0.000569022
-0.000614746
-0.000665631
-0.000727043
-0.000799131
-0.000868803
-0.000930299
-0.000995609
-0.00107516
-0.00116079
-0.0012357
-0.00129419
-0.00134778
-0.00141244
-0.00149229
-0.00157558
-0.00164554
-0.00169367
-0.000559221
-0.000579162
-0.000616821
-0.00066718
-0.000724382
-0.000788948
-0.000861979
-0.00093701
-0.00100747
-0.00107653
-0.00115141
-0.0012318
-0.00130918
-0.00137679
-0.00143725
-0.00149914
-0.00156794
-0.00164092
-0.00170971
-0.00176707
-0.000598339
-0.000619433
-0.000658667
-0.000711613
-0.000773142
-0.000840918
-0.00091482
-0.000992042
-0.00106792
-0.00114142
-0.00121562
-0.0012922
-0.00136841
-0.00144002
-0.00150586
-0.00156859
-0.00163169
-0.00169612
-0.00175952
-0.00181829
-0.00063499
-0.000659337
-0.000702023
-0.000758705
-0.000825027
-0.000897487
-0.00097441
-0.00105397
-0.00113336
-0.00121087
-0.00128706
-0.001363
-0.00143828
-0.00151114
-0.00158022
-0.00164571
-0.00170884
-0.00177053
-0.00183055
-0.00188779
0.00440159
0.00460452
0.00423515
0.00373411
0.00331379
0.00295664
0.00258136
0.00218577
0.00176009
0.00130443
0.000863908
0.000495667
0.000172638
-0.000212575
-0.000698883
-0.00122758
-0.00170311
-0.00214187
-0.00250462
-0.00271135
-0.00305959
-0.00383891
-0.00487582
-0.0058767
-0.00667711
-0.00735102
-0.00799516
-0.00842943
-0.00845407
-0.00821865
-0.00804065
-0.00785977
-0.00743614
-0.00700821
-0.00683789
-0.00670618
-0.0065161
-0.00643148
-0.00644125
-0.00648891
-0.00657047
-0.00665247
-0.00677733
-0.00692491
-0.00696354
-0.00695105
-0.00699266
-0.00699035
-0.00694633
-0.00702953
-0.00718202
-0.0072019
-0.00713308
-0.00714539
-0.00722731
-0.00727475
-0.00728332
-0.00730358
-0.0073395
-0.00737249
-0.00740225
-0.0074403
-0.00748764
-0.00754212
-0.00760101
-0.007664
-0.00773019
-0.0077985
-0.00787027
-0.0079438
-0.0080222
-0.00810164
-0.00818635
-0.00827111
-0.00836054
-0.00845002
-0.00854268
-0.00863698
-0.00873219
-0.00883135
-0.00892939
-0.00903279
-0.00913492
-0.00924126
-0.0093489
-0.00945745
-0.00957058
-0.00968261
-0.00979899
-0.0099172
-0.0100346
-0.0101591
-0.0102793
-0.0104043
-0.0105331
-0.0106526
-0.010783
-0.01091
-0.0110048
-0.0111058
0.00374858
0.00420379
0.00413026
0.00371614
0.0032923
0.00292279
0.0025429
0.00214991
0.00173042
0.00127718
0.000835031
0.000466076
0.000144091
-0.00023582
-0.000716504
-0.00124276
-0.00171002
-0.00214502
-0.00251809
-0.00272982
-0.00307488
-0.0038478
-0.00487349
-0.00585838
-0.00664359
-0.00730793
-0.00794965
-0.00838933
-0.00842313
-0.00819398
-0.0080216
-0.00784681
-0.00742583
-0.00699905
-0.00683214
-0.00670154
-0.00651161
-0.00642824
-0.00643839
-0.00648646
-0.00656828
-0.00664946
-0.00677467
-0.00692292
-0.00696145
-0.00694889
-0.0069917
-0.00698987
-0.0069451
-0.0070287
-0.00718202
-0.00720183
-0.00713262
-0.00714527
-0.0072275
-0.00727505
-0.00728342
-0.00730382
-0.00733988
-0.00737289
-0.00740258
-0.00744056
-0.00748784
-0.00754224
-0.00760107
-0.00766402
-0.00773018
-0.00779846
-0.00787023
-0.00794376
-0.00802217
-0.00810161
-0.00818634
-0.0082711
-0.00836053
-0.00845001
-0.00854268
-0.00863699
-0.00873218
-0.00883136
-0.00892938
-0.00903279
-0.00913492
-0.00924126
-0.0093489
-0.00945745
-0.00957058
-0.00968261
-0.00979899
-0.0099172
-0.0100345
-0.0101591
-0.0102793
-0.0104043
-0.0105331
-0.0106526
-0.010783
-0.01091
-0.0110049
-0.0111058
0.00340842
0.00395328
0.00408203
0.0037607
0.00332987
0.00293135
0.00252975
0.00212603
0.00170499
0.00124976
0.000800554
0.000427295
0.000102647
-0.000274975
-0.000744717
-0.00126264
-0.00171922
-0.00213835
-0.0025172
-0.00275605
-0.00311906
-0.00387503
-0.00486246
-0.00580946
-0.00656739
-0.00720984
-0.00783379
-0.00827059
-0.00832878
-0.00813409
-0.00797931
-0.00781217
-0.00740369
-0.00698757
-0.00682438
-0.00669726
-0.00651218
-0.00643213
-0.00644293
-0.00648936
-0.00656992
-0.00664992
-0.00677218
-0.00691811
-0.00695649
-0.00694458
-0.00698822
-0.0069881
-0.00694464
-0.00702728
-0.00717888
-0.00719876
-0.00713111
-0.00714454
-0.00722644
-0.0072737
-0.00728241
-0.00730315
-0.00733939
-0.00737248
-0.00740234
-0.0074405
-0.00748787
-0.00754232
-0.00760118
-0.00766415
-0.00773033
-0.00779861
-0.00787036
-0.00794386
-0.00802225
-0.00810166
-0.00818637
-0.00827111
-0.00836055
-0.00845002
-0.00854269
-0.00863699
-0.00873218
-0.00883136
-0.00892938
-0.0090328
-0.00913491
-0.00924126
-0.0093489
-0.00945744
-0.00957058
-0.00968261
-0.00979899
-0.00991721
-0.0100345
-0.0101591
-0.0102794
-0.0104043
-0.0105331
-0.0106526
-0.010783
-0.0109101
-0.0110052
-0.0111061
0.00311936
0.00367026
0.00392707
0.00372207
0.00331774
0.0029049
0.00249064
0.00208134
0.00165707
0.00119937
0.000745668
0.000371597
4.75999e-05
-0.000323026
-0.00077389
-0.0012809
-0.00172634
-0.00212639
-0.00252066
-0.00280361
-0.00317835
-0.00389888
-0.00483612
-0.00574664
-0.00647757
-0.00709571
-0.00769934
-0.00813008
-0.00821568
-0.00806107
-0.00792335
-0.00776359
-0.00737335
-0.00697308
-0.00681408
-0.0066883
-0.00650791
-0.00643284
-0.00644411
-0.00648867
-0.00656903
-0.00664767
-0.00676467
-0.00690671
-0.00694583
-0.00693497
-0.00697911
-0.00698263
-0.00694283
-0.00702354
-0.00717121
-0.00719184
-0.00712792
-0.00714279
-0.00722375
-0.00727061
-0.00728007
-0.00730162
-0.0073383
-0.00737204
-0.00740232
-0.00744081
-0.00748827
-0.00754269
-0.00760148
-0.00766437
-0.0077305
-0.00779874
-0.00787047
-0.00794396
-0.00802235
-0.00810174
-0.00818643
-0.00827115
-0.00836057
-0.00845003
-0.00854269
-0.008637
-0.00873217
-0.00883136
-0.00892938
-0.0090328
-0.00913491
-0.00924126
-0.0093489
-0.00945745
-0.00957059
-0.00968261
-0.009799
-0.00991721
-0.0100346
-0.0101591
-0.0102794
-0.0104044
-0.0105331
-0.0106527
-0.0107831
-0.0109101
-0.0110056
-0.0111066
0.00285446
0.00338799
0.00372836
0.00365114
0.00330368
0.00288011
0.00245551
0.00204952
0.00162321
0.00115413
0.000690834
0.000317311
-3.49942e-06
-0.000365532
-0.000798892
-0.00129767
-0.00173525
-0.00212242
-0.00253555
-0.00285658
-0.00322932
-0.00390692
-0.00479945
-0.00567674
-0.00637827
-0.00696955
-0.0075522
-0.0079778
-0.00808999
-0.00797606
-0.00785894
-0.00771025
-0.00734062
-0.00695636
-0.00679941
-0.00667464
-0.00650092
-0.006432
-0.00644454
-0.00648766
-0.00656768
-0.00664476
-0.00675579
-0.00689321
-0.00693352
-0.00692392
-0.00696813
-0.00697596
-0.00694087
-0.00701895
-0.00716147
-0.00718314
-0.00712393
-0.00714035
-0.0072199
-0.00726627
-0.00727677
-0.00729928
-0.00733646
-0.00737072
-0.00740175
-0.00744062
-0.00748833
-0.0075428
-0.00760158
-0.00766446
-0.00773059
-0.00779889
-0.00787068
-0.0079442
-0.00802258
-0.00810195
-0.0081866
-0.00827128
-0.00836066
-0.00845009
-0.00854273
-0.00863702
-0.00873222
-0.00883137
-0.00892939
-0.0090328
-0.00913491
-0.00924127
-0.00934891
-0.00945745
-0.00957059
-0.00968262
-0.009799
-0.00991722
-0.0100346
-0.0101591
-0.0102794
-0.0104044
-0.0105332
-0.0106527
-0.0107831
-0.0109102
-0.0110061
-0.0111072
0.00260053
0.0031236
0.00351539
0.00354903
0.00327902
0.00285664
0.00241531
0.00201702
0.00159674
0.00111214
0.000630632
0.000255558
-5.8507e-05
-0.000412171
-0.000830529
-0.00131826
-0.00175108
-0.00212841
-0.00254816
-0.0028933
-0.00326425
-0.00390853
-0.00476203
-0.00560436
-0.00627535
-0.00684013
-0.00740323
-0.00782502
-0.00796166
-0.00788599
-0.00779015
-0.00765444
-0.00730635
-0.00693725
-0.00678218
-0.00665999
-0.00649359
-0.0064308
-0.0064449
-0.00648637
-0.0065658
-0.00664156
-0.00674634
-0.00687863
-0.00692012
-0.00691186
-0.00695614
-0.00696867
-0.0069385
-0.0070135
-0.0071505
-0.00717348
-0.00711939
-0.00713735
-0.00721535
-0.00726131
-0.00727301
-0.00729656
-0.00733428
-0.00736918
-0.00740106
-0.00744049
-0.00748846
-0.00754298
-0.00760175
-0.00766461
-0.00773074
-0.00779907
-0.00787089
-0.00794443
-0.0080228
-0.00810215
-0.00818675
-0.00827139
-0.00836073
-0.00845013
-0.00854274
-0.00863704
-0.00873221
-0.00883138
-0.00892939
-0.0090328
-0.00913491
-0.00924127
-0.00934891
-0.00945745
-0.00957059
-0.00968262
-0.00979901
-0.00991723
-0.0100346
-0.0101592
-0.0102794
-0.0104044
-0.0105332
-0.0106528
-0.0107832
-0.0109102
-0.0110067
-0.0111079
0.00234532
0.00287026
0.00330238
0.00341734
0.00323023
0.00282978
0.00236763
0.00197113
0.00156988
0.001079
0.000569089
0.000184364
-0.000119478
-0.000463411
-0.000863805
-0.00133636
-0.00176913
-0.0021368
-0.00255148
-0.00291916
-0.00330188
-0.00391857
-0.00472604
-0.00552867
-0.00617124
-0.00671212
-0.00725488
-0.00767035
-0.00782797
-0.007787
-0.00771218
-0.00759251
-0.00726941
-0.00691726
-0.00676455
-0.00664431
-0.00648448
-0.00642808
-0.00644431
-0.00648425
-0.00656318
-0.00663778
-0.00673611
-0.00686291
-0.00690556
-0.00689897
-0.00694353
-0.00696061
-0.00693526
-0.0070072
-0.00713871
-0.00716314
-0.00711433
-0.00713389
-0.00721035
-0.00725595
-0.00726893
-0.00729359
-0.0073319
-0.0073675
-0.00740018
-0.0074402
-0.00748842
-0.00754308
-0.00760185
-0.00766469
-0.00773083
-0.00779919
-0.00787106
-0.00794465
-0.00802304
-0.00810237
-0.00818694
-0.00827154
-0.00836084
-0.00845021
-0.00854279
-0.00863707
-0.00873224
-0.00883138
-0.00892939
-0.00903281
-0.00913491
-0.00924127
-0.00934891
-0.00945745
-0.00957059
-0.00968262
-0.00979901
-0.00991723
-0.0100346
-0.0101592
-0.0102795
-0.0104045
-0.0105333
-0.0106529
-0.0107834
-0.0109103
-0.0110072
-0.0111086
0.00209583
0.00262337
0.00309366
0.00326519
0.00315018
0.00279164
0.00231752
0.00190971
0.00153509
0.00105734
0.000515692
0.000106809
-0.000187491
-0.00051676
-0.000897679
-0.00135568
-0.00179221
-0.00214985
-0.00255354
-0.002948
-0.00334707
-0.00392537
-0.00467766
-0.00544575
-0.00606678
-0.00658396
-0.00710332
-0.00751105
-0.00768822
-0.00768024
-0.00762707
-0.00752648
-0.00723163
-0.00689758
-0.00674504
-0.006625
-0.00647245
-0.00642378
-0.00644292
-0.00648143
-0.00655954
-0.00663303
-0.006725
-0.00684598
-0.00688996
-0.0068855
-0.00693015
-0.00695149
-0.00693121
-0.00700035
-0.00712631
-0.00715217
-0.00710883
-0.00713009
-0.00720498
-0.00725024
-0.00726457
-0.0072904
-0.00732934
-0.00736566
-0.0073992
-0.00743987
-0.0074884
-0.00754315
-0.00760192
-0.00766475
-0.0077309
-0.00779932
-0.00787126
-0.00794491
-0.00802331
-0.00810262
-0.00818715
-0.00827169
-0.00836093
-0.00845027
-0.00854282
-0.00863709
-0.00873223
-0.00883139
-0.00892939
-0.00903281
-0.00913491
-0.00924127
-0.00934891
-0.00945745
-0.0095706
-0.00968262
-0.00979902
-0.00991724
-0.0100346
-0.0101592
-0.0102795
-0.0104045
-0.0105333
-0.0106529
-0.0107835
-0.0109103
-0.0110077
-0.0111093
0.00186212
0.00237811
0.00288127
0.00310225
0.00304553
0.0027373
0.00226415
0.00183538
0.00148181
0.00103944
0.000479938
2.74366e-05
-0.000269227
-0.000576688
-0.000936726
-0.00137889
-0.00181636
-0.00216541
-0.00255818
-0.00297646
-0.00338391
-0.00391576
-0.00461828
-0.00536515
-0.00596816
-0.00645623
-0.00694947
-0.00735055
-0.00754612
-0.00756806
-0.00753482
-0.00745304
-0.00718884
-0.00687519
-0.00672281
-0.0066034
-0.00645917
-0.00641838
-0.00644027
-0.00647714
-0.0065544
-0.00662729
-0.00671311
-0.0068281
-0.00687363
-0.00687146
-0.00691586
-0.00694142
-0.00692662
-0.00699309
-0.00711329
-0.00714062
-0.00710295
-0.00712595
-0.0071992
-0.00724414
-0.00725995
-0.00728701
-0.00732656
-0.00736361
-0.00739805
-0.00743941
-0.00748828
-0.00754309
-0.00760193
-0.00766479
-0.00773099
-0.00779947
-0.00787146
-0.00794514
-0.00802354
-0.00810283
-0.00818732
-0.00827183
-0.00836103
-0.00845033
-0.00854286
-0.00863711
-0.00873226
-0.0088314
-0.00892939
-0.00903281
-0.00913491
-0.00924127
-0.00934891
-0.00945745
-0.0095706
-0.00968263
-0.00979903
-0.00991725
-0.0100346
-0.0101592
-0.0102796
-0.0104045
-0.0105334
-0.010653
-0.0107837
-0.0109104
-0.0110082
-0.0111101
0.00164783
0.00213969
0.00266368
0.00293209
0.00292542
0.00266152
0.00219874
0.00175288
0.00140903
0.00101354
0.000461072
-4.61225e-05
-0.000366423
-0.000645515
-0.000976565
-0.00139903
-0.001835
-0.00218565
-0.00256908
-0.002996
-0.00340756
-0.00390328
-0.00456404
-0.00528951
-0.00587151
-0.00632666
-0.00679243
-0.00718793
-0.00740032
-0.00744812
-0.00743275
-0.00737043
-0.00714093
-0.00685233
-0.00670135
-0.00658093
-0.00644327
-0.00640966
-0.00643506
-0.0064714
-0.00654849
-0.00662113
-0.00670077
-0.00680945
-0.00685632
-0.00685642
-0.00690065
-0.00693064
-0.00692154
-0.0069853
-0.00709961
-0.00712844
-0.00709657
-0.00712131
-0.00719291
-0.0072376
-0.00725494
-0.00728325
-0.00732345
-0.00736131
-0.00739673
-0.00743882
-0.00748807
-0.00754303
-0.00760196
-0.00766483
-0.00773104
-0.00779957
-0.00787163
-0.00794537
-0.0080238
-0.00810309
-0.00818755
-0.00827201
-0.00836115
-0.00845042
-0.0085429
-0.00863714
-0.00873227
-0.0088314
-0.0089294
-0.00903281
-0.00913491
-0.00924127
-0.00934891
-0.00945745
-0.00957061
-0.00968263
-0.00979904
-0.00991726
-0.0100347
-0.0101592
-0.0102796
-0.0104046
-0.0105335
-0.0106531
-0.0107838
-0.0109105
-0.0110086
-0.0111108
0.00145007
0.0019166
0.0024438
0.00274898
0.00279043
0.00256642
0.00211912
0.00166444
0.00132116
0.000966525
0.000448093
-0.000100203
-0.000466329
-0.000724599
-0.00101687
-0.00141507
-0.00185416
-0.00221816
-0.00258596
-0.00300244
-0.00342453
-0.00390118
-0.00451229
-0.00520289
-0.00576813
-0.00619738
-0.00663476
-0.0070234
-0.00725171
-0.00732299
-0.0073238
-0.00728107
-0.00708821
-0.00682759
-0.00667847
-0.00655547
-0.00642386
-0.0063983
-0.00642874
-0.00646529
-0.00654174
-0.00661384
-0.00668743
-0.00678954
-0.00683766
-0.00684055
-0.00688487
-0.00691915
-0.00691569
-0.00697674
-0.00708507
-0.00711544
-0.00708954
-0.00711614
-0.00718605
-0.0072305
-0.0072495
-0.0072792
-0.00732015
-0.00735886
-0.00739527
-0.00743813
-0.00748777
-0.0075429
-0.00760182
-0.00766478
-0.00773105
-0.00779967
-0.00787181
-0.0079456
-0.00802404
-0.00810331
-0.00818771
-0.00827213
-0.00836123
-0.00845047
-0.00854292
-0.00863716
-0.00873228
-0.00883141
-0.0089294
-0.00903281
-0.00913491
-0.00924126
-0.00934892
-0.00945744
-0.00957062
-0.00968263
-0.00979906
-0.00991727
-0.0100347
-0.0101592
-0.0102797
-0.0104046
-0.0105337
-0.0106532
-0.010784
-0.0109106
-0.011009
-0.0111116
0.00125779
0.00170858
0.00222943
0.00255578
0.00263782
0.00245517
0.0020237
0.00156372
0.00122173
0.00089877
0.000430806
-0.000130331
-0.000555946
-0.000820073
-0.00106744
-0.00142939
-0.00187579
-0.00225827
-0.00260287
-0.00300111
-0.00344004
-0.0039016
-0.00445048
-0.00510194
-0.0056651
-0.00607725
-0.00648062
-0.00685707
-0.00710032
-0.00719367
-0.00720806
-0.00718269
-0.00702688
-0.00679798
-0.00665433
-0.00653024
-0.00640398
-0.00638487
-0.00641971
-0.00645677
-0.00653286
-0.00660531
-0.00667348
-0.00676867
-0.00681792
-0.00682396
-0.0068683
-0.00690652
-0.00690874
-0.00696722
-0.00706962
-0.00710168
-0.00708194
-0.0071104
-0.00717864
-0.00722301
-0.00724383
-0.00727494
-0.0073166
-0.00735613
-0.00739357
-0.00743722
-0.00748729
-0.00754264
-0.00760168
-0.00766473
-0.00773106
-0.00779975
-0.00787196
-0.00794581
-0.00802428
-0.00810356
-0.00818795
-0.00827232
-0.00836138
-0.00845056
-0.00854298
-0.0086372
-0.00873229
-0.00883141
-0.0089294
-0.0090328
-0.00913491
-0.00924126
-0.00934892
-0.00945744
-0.00957063
-0.00968263
-0.00979907
-0.00991728
-0.0100347
-0.0101593
-0.0102798
-0.0104047
-0.0105338
-0.0106533
-0.0107842
-0.0109107
-0.0110094
-0.0111124
0.00106119
0.00150982
0.00202904
0.00236098
0.00246138
0.00232015
0.00191496
0.0014524
0.00111567
0.000818262
0.000396483
-0.000149742
-0.000628686
-0.000928018
-0.00113512
-0.0014426
-0.00188937
-0.0022957
-0.00262601
-0.00300387
-0.00344729
-0.00388991
-0.00438446
-0.00500391
-0.00556792
-0.00596133
-0.00632565
-0.00668626
-0.0069442
-0.00706074
-0.00708697
-0.00707549
-0.00695772
-0.00676513
-0.00662992
-0.00650502
-0.00638205
-0.00636693
-0.00640628
-0.00644622
-0.00652335
-0.0065962
-0.00665863
-0.00674636
-0.00679666
-0.00680631
-0.00685077
-0.00689267
-0.00690064
-0.00695691
-0.00705355
-0.0070873
-0.00707375
-0.00710417
-0.00717078
-0.00721508
-0.00723768
-0.0072702
-0.0073126
-0.00735307
-0.00739162
-0.00743614
-0.00748671
-0.00754233
-0.00760149
-0.00766458
-0.007731
-0.00779978
-0.00787209
-0.00794603
-0.00802452
-0.00810378
-0.0081881
-0.00827243
-0.00836144
-0.0084506
-0.00854296
-0.00863721
-0.00873229
-0.00883141
-0.00892939
-0.0090328
-0.00913491
-0.00924125
-0.00934892
-0.00945743
-0.00957063
-0.00968263
-0.00979909
-0.00991729
-0.0100348
-0.0101593
-0.0102799
-0.0104047
-0.0105339
-0.0106534
-0.0107844
-0.0109109
-0.0110098
-0.0111132
0.000859978
0.00131225
0.0018399
0.00216997
0.00226601
0.00215778
0.00179586
0.0013351
0.000998637
0.000725168
0.000341846
-0.000173873
-0.000682547
-0.00103125
-0.00122024
-0.00146167
-0.0018871
-0.00232686
-0.00266666
-0.00301334
-0.00343594
-0.00386817
-0.00432876
-0.00491257
-0.00546561
-0.00583899
-0.00616875
-0.00651638
-0.00678831
-0.00692682
-0.00696263
-0.00696082
-0.00688031
-0.00672601
-0.00660099
-0.0064777
-0.00635989
-0.00634743
-0.00638984
-0.00643311
-0.00651177
-0.00658512
-0.00664232
-0.00672289
-0.00677428
-0.00678772
-0.00683221
-0.00687763
-0.00689164
-0.00694601
-0.00703679
-0.00707213
-0.00706489
-0.00709729
-0.00716218
-0.0072064
-0.00723095
-0.00726507
-0.00730833
-0.00734977
-0.00738948
-0.0074349
-0.00748595
-0.00754182
-0.00760117
-0.00766439
-0.0077309
-0.00779979
-0.00787219
-0.00794619
-0.00802472
-0.008104
-0.00818832
-0.00827262
-0.00836159
-0.00845071
-0.00854325
-0.00863727
-0.00873231
-0.00883141
-0.00892939
-0.00903279
-0.00913491
-0.00924124
-0.00934893
-0.00945743
-0.00957065
-0.00968263
-0.00979912
-0.0099173
-0.0100348
-0.0101593
-0.01028
-0.0104048
-0.0105341
-0.0106536
-0.0107845
-0.010911
-0.0110102
-0.0111141
0.000663007
0.00111063
0.00165197
0.00198705
0.00206805
0.00197059
0.00165606
0.00121112
0.000867782
0.000618332
0.000274506
-0.00020969
-0.000721927
-0.00111592
-0.00131835
-0.00149814
-0.0018747
-0.0023483
-0.00272055
-0.0030278
-0.00341198
-0.0038461
-0.00428018
-0.00481369
-0.00535277
-0.00571826
-0.00601854
-0.00635094
-0.00663309
-0.00678957
-0.00683323
-0.00683873
-0.00679301
-0.0066789
-0.00656818
-0.00645038
-0.00633951
-0.00632653
-0.00636791
-0.00641435
-0.00649746
-0.00657348
-0.00662584
-0.0066985
-0.00675028
-0.00676767
-0.00681268
-0.00686175
-0.00688171
-0.00693412
-0.00701905
-0.00705603
-0.00705513
-0.00708951
-0.00715279
-0.00719719
-0.00722391
-0.00725966
-0.00730374
-0.00734614
-0.007387
-0.00743332
-0.00748495
-0.00754119
-0.00760076
-0.00766411
-0.00773073
-0.00779973
-0.00787226
-0.00794635
-0.00802494
-0.00810421
-0.00818848
-0.00827273
-0.00836164
-0.00845074
-0.00854317
-0.00863717
-0.0087323
-0.0088314
-0.00892939
-0.00903277
-0.00913491
-0.00924123
-0.00934893
-0.00945742
-0.00957066
-0.00968263
-0.00979914
-0.00991731
-0.0100349
-0.0101594
-0.0102801
-0.0104049
-0.0105342
-0.0106537
-0.0107847
-0.0109112
-0.0110105
-0.0111148
0.000478103
0.000905255
0.00145635
0.00181077
0.0018783
0.00176545
0.00148678
0.00107691
0.000728635
0.000497167
0.000197828
-0.000255145
-0.000757298
-0.0011837
-0.00141968
-0.00155773
-0.00186677
-0.00235055
-0.00276928
-0.00305427
-0.00339002
-0.0038177
-0.00422587
-0.00470724
-0.0052402
-0.00560962
-0.00587454
-0.00618052
-0.00647361
-0.00665094
-0.00670154
-0.0067119
-0.00669797
-0.00662482
-0.00653081
-0.0064198
-0.00631744
-0.00630441
-0.0063429
-0.00639144
-0.00648017
-0.00656066
-0.0066087
-0.00667263
-0.00672445
-0.00674663
-0.00679253
-0.0068446
-0.00687014
-0.00692097
-0.00700035
-0.00703894
-0.00704445
-0.00708109
-0.00714295
-0.00718755
-0.00721637
-0.0072537
-0.00729861
-0.00734204
-0.00738418
-0.00743154
-0.00748379
-0.00754039
-0.00760019
-0.00766372
-0.00773049
-0.00779964
-0.00787227
-0.00794645
-0.00802507
-0.00810437
-0.00818865
-0.00827289
-0.00836178
-0.00845082
-0.00854323
-0.00863726
-0.00873232
-0.0088314
-0.00892938
-0.00903276
-0.00913491
-0.00924121
-0.00934894
-0.00945741
-0.00957067
-0.00968264
-0.00979916
-0.00991733
-0.010035
-0.0101594
-0.0102802
-0.010405
-0.0105344
-0.0106539
-0.0107849
-0.0109114
-0.0110109
-0.0111156
0.000306371
0.000699752
0.00125039
0.00163398
0.0016991
0.00155613
0.00129104
0.000923756
0.000585682
0.000363984
0.000108415
-0.000307118
-0.000798985
-0.00124198
-0.00150904
-0.00163521
-0.00187667
-0.00233321
-0.00279913
-0.00309678
-0.00337791
-0.00377354
-0.00416813
-0.00461023
-0.00512725
-0.00550204
-0.00573419
-0.00600426
-0.0063116
-0.00651804
-0.0065716
-0.00657981
-0.00659431
-0.00656114
-0.00648566
-0.00638456
-0.00629474
-0.00628444
-0.0063173
-0.00636286
-0.00645608
-0.00654517
-0.00659215
-0.00664663
-0.00669703
-0.00672398
-0.00677087
-0.00682564
-0.00685703
-0.00690688
-0.00698089
-0.00702107
-0.00703312
-0.00707207
-0.00713238
-0.00717705
-0.00720804
-0.00724715
-0.00729308
-0.00733766
-0.00738108
-0.00742944
-0.00748231
-0.00753936
-0.00759948
-0.00766323
-0.00773015
-0.00779944
-0.00787221
-0.00794652
-0.00802523
-0.00810454
-0.0081888
-0.008273
-0.00836183
-0.00845083
-0.00854323
-0.00863722