/*--------------------------------*- C++ -*----------------------------------*\
  =========                 |
  \\      /  F ield         | OpenFOAM: The Open Source CFD Toolbox
   \\    /   O peration     | Website:  https://openfoam.org
    \\  /    A nd           | Version:  10
     \\/     M anipulation  |
\*---------------------------------------------------------------------------*/
FoamFile
{
    format      ascii;
    class       surfaceScalarField;
    location    "0.3";
    object      phi;
}
// * * * * * * * * * * * * * * * * * * * * * * * * * * * * * * * * * * * * * //

dimensions      [0 3 -1 0 0 0 0];

internalField   nonuniform List<scalar> 
9440
(
3.88143e-06
1.03189e-08
3.87669e-06
-2.48237e-08
3.8797e-06
5.06937e-08
3.8726e-06
-4.57218e-08
3.88069e-06
8.19601e-08
3.87065e-06
-7.57289e-08
3.87207e-06
-2.95668e-08
3.87345e-06
6.31165e-09
3.87347e-06
-2.23592e-08
3.87117e-06
-1.10544e-08
3.87049e-06
3.32411e-08
3.87026e-06
2.20583e-08
3.87104e-06
6.00319e-08
3.87047e-06
1.0636e-08
3.87141e-06
3.93263e-08
3.87184e-06
2.45178e-09
3.86991e-06
1.88984e-08
3.86473e-06
6.81521e-09
3.85187e-06
2.60989e-08
2.3913e-08
3.83214e-06
4.18331e-06
1.28655e-08
4.18545e-06
-2.69645e-08
4.18322e-06
5.29314e-08
4.18185e-06
-4.43602e-08
4.18519e-06
7.86251e-08
4.17963e-06
-7.01657e-08
4.17779e-06
-2.7732e-08
4.18069e-06
3.41519e-09
4.18002e-06
-2.16889e-08
4.1769e-06
-7.93196e-09
4.17838e-06
3.17586e-08
4.17485e-06
2.55853e-08
4.17884e-06
5.60431e-08
4.17324e-06
1.62323e-08
4.1774e-06
3.5166e-08
4.17212e-06
7.73561e-09
4.17231e-06
1.87071e-08
4.16446e-06
1.46667e-08
4.15976e-06
3.08014e-08
3.24981e-08
4.15117e-06
4.51802e-06
1.49061e-08
4.51899e-06
-2.79333e-08
4.51851e-06
5.34112e-08
4.51635e-06
-4.22012e-08
4.52064e-06
7.43382e-08
4.51464e-06
-6.41682e-08
4.51505e-06
-2.81457e-08
4.51292e-06
5.54861e-09
4.51586e-06
-2.4626e-08
4.50865e-06
-7.24704e-10
4.51438e-06
2.60314e-08
4.50796e-06
3.20052e-08
4.51606e-06
4.79453e-08
4.50797e-06
2.43214e-08
4.51464e-06
2.84917e-08
4.50654e-06
1.58384e-08
4.50788e-06
1.73685e-08
4.49918e-06
2.33611e-08
4.49786e-06
3.21274e-08
3.9747e-08
4.49061e-06
4.88088e-06
1.49696e-08
4.87974e-06
-2.67875e-08
4.88181e-06
5.13375e-08
4.87784e-06
-3.82262e-08
4.8839e-06
6.8278e-08
4.87609e-06
-5.63578e-08
4.87863e-06
-3.06887e-08
4.87349e-06
1.06889e-08
4.87735e-06
-2.84828e-08
4.86999e-06
6.63064e-09
4.87495e-06
2.10703e-08
4.87156e-06
3.5401e-08
4.87675e-06
4.27516e-08
4.8739e-06
2.71682e-08
4.87484e-06
2.75512e-08
4.87083e-06
1.98546e-08
4.86646e-06
2.17357e-08
4.86151e-06
2.83072e-08
4.85888e-06
3.47605e-08
4.34311e-08
4.8552e-06
5.27135e-06
1.42661e-08
5.26922e-06
-2.46616e-08
5.27277e-06
4.77871e-08
5.26751e-06
-3.29605e-08
5.275e-06
6.07853e-08
5.26554e-06
-4.6895e-08
5.26927e-06
-3.44236e-08
5.26317e-06
1.67897e-08
5.26644e-06
-3.17528e-08
5.26073e-06
1.23481e-08
5.26331e-06
1.84883e-08
5.26388e-06
3.48309e-08
5.26515e-06
4.14816e-08
5.26553e-06
2.67899e-08
5.26292e-06
3.01532e-08
5.25985e-06
2.29291e-08
5.25614e-06
2.54491e-08
5.25105e-06
3.33909e-08
5.24837e-06
3.74431e-08
4.55328e-08
5.24627e-06
5.69248e-06
1.32408e-08
5.68956e-06
-2.17401e-08
5.69432e-06
4.30315e-08
5.68802e-06
-2.66639e-08
5.69633e-06
5.24776e-08
5.68627e-06
-3.68393e-08
5.68973e-06
-3.78754e-08
5.68485e-06
2.16648e-08
5.68536e-06
-3.2266e-08
5.68364e-06
1.4072e-08
5.68209e-06
2.00398e-08
5.68601e-06
3.09084e-08
5.68451e-06
4.29813e-08
5.68511e-06
2.61868e-08
5.68268e-06
3.25853e-08
5.67826e-06
2.7348e-08
5.67547e-06
2.82405e-08
5.67121e-06
3.76581e-08
5.66817e-06
4.04784e-08
4.67613e-08
5.66694e-06
6.14715e-06
1.19629e-08
6.14335e-06
-1.79405e-08
6.14931e-06
3.7073e-08
6.14219e-06
-1.95459e-08
6.15079e-06
4.38747e-08
6.14108e-06
-2.71245e-08
6.14305e-06
-3.98445e-08
6.14072e-06
2.39866e-08
6.13776e-06
-2.93001e-08
6.13941e-06
1.24243e-08
6.13553e-06
2.3918e-08
6.13943e-06
2.70033e-08
6.13844e-06
4.39754e-08
6.1369e-06
2.77248e-08
6.13553e-06
3.39537e-08
6.13045e-06
3.24307e-08
6.12773e-06
3.09609e-08
6.12475e-06
4.06416e-08
6.12154e-06
4.36809e-08
4.76008e-08
6.1207e-06
6.63807e-06
1.04535e-08
6.63343e-06
-1.32976e-08
6.64033e-06
3.01753e-08
6.63302e-06
-1.22398e-08
6.64096e-06
3.59382e-08
6.63287e-06
-1.90365e-08
6.63221e-06
-3.91825e-08
6.63275e-06
2.34442e-08
6.62729e-06
-2.38405e-08
6.62969e-06
1.00228e-08
6.62668e-06
2.69262e-08
6.62823e-06
2.54557e-08
6.62848e-06
4.37219e-08
6.62527e-06
3.09349e-08
6.62405e-06
3.51804e-08
6.61935e-06
3.71263e-08
6.6163e-06
3.40128e-08
6.61442e-06
4.25218e-08
6.61155e-06
4.65539e-08
4.85791e-08
6.61057e-06
7.16812e-06
8.76577e-09
7.16282e-06
-8.00351e-09
7.17014e-06
2.28554e-08
7.16352e-06
-5.61562e-09
7.16981e-06
2.9647e-08
7.16435e-06
-1.35723e-08
7.16056e-06
-3.53954e-08
7.16298e-06
2.10266e-08
7.15729e-06
-1.81567e-08
7.15812e-06
9.19689e-09
7.15676e-06
2.82809e-08
7.15673e-06
2.54911e-08
7.15663e-06
4.38221e-08
7.15337e-06
3.41898e-08
7.15194e-06
3.66136e-08
7.14764e-06
4.14307e-08
7.14415e-06
3.74995e-08
7.14303e-06
4.36453e-08
7.14097e-06
4.86119e-08
4.97133e-08
7.13983e-06
7.74038e-06
6.99161e-09
7.73477e-06
-2.39708e-09
7.74175e-06
1.58772e-08
7.7369e-06
-7.63097e-10
7.74064e-06
2.59089e-08
7.73784e-06
-1.07724e-08
7.73207e-06
-2.96273e-08
7.73438e-06
1.87091e-08
7.73011e-06
-1.38788e-08
7.72916e-06
1.01412e-08
7.72782e-06
2.96256e-08
7.72813e-06
2.51812e-08
7.72701e-06
4.4941e-08
7.72318e-06
3.80178e-08
7.7224e-06
3.73952e-08
7.71873e-06
4.50987e-08
7.71467e-06
4.15635e-08
7.71379e-06
4.45199e-08
7.71274e-06
4.96694e-08
5.07985e-08
7.71165e-06
8.35818e-06
5.27106e-09
8.35278e-06
3.0061e-09
8.35846e-06
1.01959e-08
8.35634e-06
1.35896e-09
8.35724e-06
2.50079e-08
8.35605e-06
-9.58205e-09
8.35038e-06
-2.39584e-08
8.35083e-06
1.82582e-08
8.34804e-06
-1.10882e-08
8.34686e-06
1.13155e-08
8.34378e-06
3.27094e-08
8.34455e-06
2.44159e-08
8.34396e-06
4.55299e-08
8.33873e-06
4.32403e-08
8.33787e-06
3.82593e-08
8.3359e-06
4.70676e-08
8.33156e-06
4.59026e-08
8.33024e-06
4.58402e-08
8.33002e-06
4.98883e-08
5.14036e-08
8.32942e-06
9.02514e-06
3.77641e-09
9.02055e-06
7.59335e-09
9.0239e-06
6.85237e-09
9.02489e-06
3.63074e-10
9.0239e-06
2.59996e-08
9.02252e-06
-8.19962e-09
9.01875e-06
-2.01911e-08
9.01687e-06
2.01415e-08
9.01411e-06
-8.33209e-09
9.01434e-06
1.10861e-08
9.00989e-06
3.71669e-08
9.00899e-06
2.53134e-08
9.01044e-06
4.40757e-08
9.00469e-06
4.89878e-08
9.00234e-06
4.06167e-08
9.00207e-06
4.73378e-08
8.99846e-06
4.95123e-08
8.99646e-06
4.78354e-08
8.99656e-06
4.97886e-08
5.13703e-08
8.9966e-06
9.7452e-06
2.68201e-09
9.74202e-06
1.07727e-08
9.74232e-06
6.5536e-09
9.74592e-06
-3.23785e-09
9.74485e-06
2.70711e-08
9.74164e-06
-4.9919e-09
9.73993e-06
-1.84874e-08
9.73736e-06
2.27204e-08
9.7325e-06
-3.4738e-09
9.73439e-06
9.19428e-09
9.73039e-06
4.11654e-08
9.72643e-06
2.92786e-08
9.72925e-06
4.125e-08
9.72517e-06
5.30657e-08
9.72075e-06
4.50448e-08
9.72094e-06
4.71464e-08
9.71891e-06
5.15378e-08
9.71653e-06
5.02196e-08
9.71642e-06
4.98991e-08
5.08405e-08
9.71695e-06
1.05226e-05
2.11816e-09
1.05213e-05
1.21473e-08
1.05187e-05
9.10856e-09
1.05233e-05
-7.78685e-09
1.05241e-05
2.62337e-08
1.05184e-05
7.38309e-10
1.05174e-05
-1.7566e-08
1.05163e-05
2.38383e-08
1.05087e-05
4.1395e-09
1.05104e-05
7.54457e-09
1.05089e-05
4.26476e-08
1.05027e-05
3.54706e-08
1.05042e-05
3.97565e-08
1.05031e-05
5.41434e-08
1.04981e-05
5.00378e-08
1.04972e-05
4.8023e-08
1.04967e-05
5.20875e-08
1.04947e-05
5.22574e-08
1.04942e-05
5.0374e-08
5.01694e-08
1.04948e-05
1.13622e-05
2.10961e-09
1.13626e-05
1.16782e-08
1.13583e-05
1.34746e-08
1.13616e-05
-1.10608e-08
1.13655e-05
2.22433e-08
1.13582e-05
8.11347e-09
1.13559e-05
-1.53148e-08
1.13572e-05
2.25364e-08
1.13485e-05
1.28631e-08
1.13473e-05
8.73077e-09
1.13486e-05
4.13518e-08
1.13427e-05
4.14102e-08
1.13416e-05
4.0836e-08
1.13419e-05
5.3796e-08
1.13384e-05
5.35977e-08
1.13364e-05
4.99929e-08
1.13363e-05
5.22018e-08
1.13353e-05
5.32993e-08
1.13345e-05
5.11243e-08
4.95626e-08
1.13351e-05
1.22689e-05
2.57419e-09
1.22708e-05
9.77026e-09
1.22661e-05
1.81794e-08
1.22661e-05
-1.11333e-08
1.22731e-05
1.52832e-08
1.22664e-05
1.47894e-08
1.2261e-05
-9.91723e-09
1.2264e-05
1.955e-08
1.22566e-05
2.02562e-08
1.22519e-05
1.34577e-08
1.2254e-05
3.92111e-08
1.22501e-05
4.53096e-08
1.22474e-05
4.35332e-08
1.22477e-05
5.35764e-08
1.22454e-05
5.58486e-08
1.22434e-05
5.19774e-08
1.22432e-05
5.2405e-08
1.22429e-05
5.36087e-08
1.22424e-05
5.16813e-08
4.91737e-08
1.22427e-05
1.32482e-05
3.31121e-09
1.32508e-05
7.21226e-09
1.32472e-05
2.17439e-08
1.32433e-05
-7.24092e-09
1.32514e-05
7.1911e-09
1.3248e-05
1.81492e-08
1.32393e-05
-1.23087e-09
1.32416e-05
1.73066e-08
1.32373e-05
2.45101e-08
1.32308e-05
2.00115e-08
1.32312e-05
3.88278e-08
1.32295e-05
4.69485e-08
1.32269e-05
4.61445e-08
1.32264e-05
5.41209e-08
1.32249e-05
5.73416e-08
1.32231e-05
5.37364e-08
1.3223e-05
5.2551e-08
1.32232e-05
5.33709e-08
1.32229e-05
5.19893e-08
4.89024e-08
1.32232e-05
1.4306e-05
4.04926e-09
1.43082e-05
4.98081e-09
1.4307e-05
2.30168e-08
1.43e-05
-2.43328e-10
1.43062e-05
9.10563e-10
1.43073e-05
1.7131e-08
1.42977e-05
8.3409e-09
1.42968e-05
1.82259e-08
1.42949e-05
2.63647e-08
1.42891e-05
2.57991e-08
1.42875e-05
4.04641e-08
1.42862e-05
4.82332e-08
1.42847e-05
4.76263e-08
1.42844e-05
5.43952e-08
1.42829e-05
5.88478e-08
1.42813e-05
5.53946e-08
1.42812e-05
5.26319e-08
1.42819e-05
5.268e-08
1.4282e-05
5.18652e-08
4.86585e-08
1.42823e-05
1.54485e-05
4.51552e-09
1.54497e-05
3.84022e-09
1.54509e-05
2.17832e-08
1.54429e-05
7.79703e-09
1.54448e-05
-1.04929e-09
1.54492e-05
1.27502e-08
1.54419e-05
1.56004e-08
1.54372e-05
2.29962e-08
1.54356e-05
2.79172e-08
1.54319e-05
2.95305e-08
1.54295e-05
4.28279e-08
1.54276e-05
5.01148e-08
1.54264e-05
4.88448e-08
1.54271e-05
5.37426e-08
1.54266e-05
5.93596e-08
1.54245e-05
5.74683e-08
1.54241e-05
5.29951e-08
1.54251e-05
5.17195e-08
1.54259e-05
5.10589e-08
4.83223e-08
1.54262e-05
1.66825e-05
4.51869e-09
1.66821e-05
4.22273e-09
1.66853e-05
1.85763e-08
1.66783e-05
1.48159e-08
1.66753e-05
1.87457e-09
1.66803e-05
7.79366e-09
1.66773e-05
1.85519e-08
1.66709e-05
2.94597e-08
1.66671e-05
3.16629e-08
1.66648e-05
3.18648e-08
1.66636e-05
4.40627e-08
1.66613e-05
5.236e-08
1.66595e-05
5.06766e-08
1.66605e-05
5.27289e-08
1.66613e-05
5.85315e-08
1.66601e-05
5.86487e-08
1.6659e-05
5.41901e-08
1.66596e-05
5.10794e-08
1.66609e-05
4.97046e-08
4.75567e-08
1.66617e-05
1.80149e-05
4.04972e-09
1.80131e-05
5.98931e-09
1.8017e-05
1.47133e-08
1.80127e-05
1.90869e-08
1.80063e-05
8.24156e-09
1.80086e-05
5.47573e-09
1.80096e-05
1.76034e-08
1.80048e-05
3.42079e-08
1.79986e-05
3.79172e-08
1.79954e-05
3.50298e-08
1.79957e-05
4.38026e-08
1.79946e-05
5.34157e-08
1.79921e-05
5.31671e-08
1.79923e-05
5.26189e-08
1.79942e-05
5.65843e-08
1.79943e-05
5.85144e-08
1.79934e-05
5.51222e-08
1.79933e-05
5.11681e-08
1.79945e-05
4.84897e-08
4.63061e-08
1.79958e-05
1.94534e-05
3.30357e-09
1.9451e-05
8.45375e-09
1.94539e-05
1.173e-08
1.94531e-05
1.99186e-08
1.94457e-05
1.56776e-08
1.94436e-05
7.52468e-09
1.94463e-05
1.49622e-08
1.94451e-05
3.53359e-08
1.94387e-05
4.43937e-08
1.94333e-05
4.04091e-08
1.94334e-05
4.37101e-08
1.94342e-05
5.25676e-08
1.94327e-05
5.47189e-08
1.94316e-05
5.37154e-08
1.94332e-05
5.50145e-08
1.94348e-05
5.69156e-08
1.94345e-05
5.53505e-08
1.94344e-05
5.12445e-08
1.9435e-05
4.7908e-08
4.50732e-08
1.94363e-05
2.10065e-05
2.56391e-09
2.10042e-05
1.07511e-08
2.10052e-05
1.07498e-08
2.10072e-05
1.79208e-08
2.10013e-05
2.16337e-08
2.09953e-05
1.35259e-08
2.09963e-05
1.39695e-08
2.09988e-05
3.28238e-08
2.09952e-05
4.7956e-08
2.09882e-05
4.74431e-08
2.09861e-05
4.57379e-08
2.09881e-05
5.06331e-08
2.09883e-05
5.44506e-08
2.09875e-05
5.45413e-08
2.09879e-05
5.46682e-08
2.09896e-05
5.51919e-08
2.09906e-05
5.43525e-08
2.09908e-05
5.10011e-08
2.09912e-05
4.75521e-08
4.41667e-08
2.09921e-05
2.26833e-05
2.16185e-09
2.2682e-05
1.20918e-08
2.26808e-05
1.18872e-08
2.26837e-05
1.5097e-08
2.26809e-05
2.43965e-08
2.26732e-05
2.12734e-08
2.26707e-05
1.6386e-08
2.26746e-05
2.89879e-08
2.26749e-05
4.76628e-08
2.26692e-05
5.30796e-08
2.26647e-05
5.02555e-08
2.26653e-05
5.00283e-08
2.26676e-05
5.21882e-08
2.26681e-05
5.40017e-08
2.26683e-05
5.4446e-08
2.26691e-05
5.44159e-08
2.26705e-05
5.29386e-08
2.26714e-05
5.01104e-08
2.26722e-05
4.67606e-08
4.3505e-08
2.26729e-05
2.44938e-05
2.29357e-09
2.44937e-05
1.2182e-08
2.44912e-05
1.44244e-08
2.44929e-05
1.3433e-08
2.44934e-05
2.38445e-08
2.44868e-05
2.78915e-08
2.44809e-05
2.22442e-08
2.4483e-05
2.69272e-08
2.44868e-05
4.38538e-08
2.44847e-05
5.52248e-08
2.44795e-05
5.54527e-08
2.44778e-05
5.16735e-08
2.44797e-05
5.03151e-08
2.44822e-05
5.14582e-08
2.44834e-05
5.32429e-08
2.44841e-05
5.3699e-08
2.44848e-05
5.22956e-08
2.44859e-05
4.90164e-08
2.4487e-05
4.56076e-08
4.23398e-08
2.44882e-05
2.64489e-05
2.95155e-09
2.64497e-05
1.13743e-08
2.64471e-05
1.70788e-08
2.64465e-05
1.40195e-08
2.64488e-05
2.14829e-08
2.64453e-05
3.13767e-08
2.6438e-05
2.96205e-08
2.64368e-05
2.80951e-08
2.64415e-05
3.91703e-08
2.64432e-05
5.34885e-08
2.64403e-05
5.8407e-08
2.64366e-05
5.532e-08
2.64369e-05
5.0014e-08
2.64397e-05
4.86785e-08
2.64427e-05
5.02112e-08
2.64444e-05
5.20261e-08
2.64451e-05
5.16531e-08
2.64454e-05
4.87094e-08
2.64464e-05
4.45405e-08
4.11541e-08
2.64476e-05
2.85604e-05
3.90321e-09
2.85614e-05
1.03528e-08
2.85596e-05
1.88639e-08
2.85571e-05
1.6498e-08
2.85591e-05
1.94881e-08
2.8559e-05
3.15057e-08
2.85529e-05
3.56842e-08
2.85487e-05
3.23208e-08
2.85515e-05
3.6327e-08
2.85562e-05
4.88273e-08
2.85566e-05
5.80479e-08
2.85537e-05
5.81988e-08
2.85518e-05
5.19281e-08
2.85534e-05
4.70643e-08
2.85569e-05
4.66637e-08
2.85602e-05
4.87388e-08
2.85618e-05
5.00509e-08
2.85623e-05
4.82681e-08
2.85625e-05
4.43507e-08
4.01167e-08
2.85635e-05
3.08407e-05
4.83912e-09
3.08413e-05
9.81278e-09
3.08408e-05
1.93338e-08
3.08375e-05
1.97674e-08
3.08377e-05
1.92863e-08
3.08398e-05
2.94798e-08
3.08368e-05
3.86529e-08
3.08314e-05
3.7759e-08
3.08315e-05
3.61933e-08
3.08363e-05
4.40495e-08
3.08398e-05
5.44812e-08
3.08396e-05
5.84837e-08
3.08371e-05
5.43498e-08
3.08369e-05
4.72498e-08
3.08395e-05
4.41124e-08
3.08436e-05
4.4644e-08
3.08467e-05
4.6935e-08
3.08481e-05
4.68724e-08
3.08485e-05
4.39958e-08
3.97973e-08
3.08488e-05
3.33035e-05
5.48708e-09
3.33032e-05
1.00951e-08
3.33037e-05
1.87896e-08
3.33009e-05
2.25613e-08
3.32994e-05
2.08523e-08
3.33016e-05
2.72513e-08
3.33017e-05
3.8536e-08
3.32977e-05
4.17592e-08
3.32954e-05
3.84832e-08
3.32985e-05
4.09331e-08
3.33038e-05
4.91983e-08
3.33063e-05
5.60048e-08
3.33056e-05
5.50567e-08
3.33042e-05
4.86328e-08
3.33054e-05
4.29383e-08
3.33086e-05
4.13856e-08
3.33129e-05
4.26427e-08
3.33156e-05
4.41606e-08
3.33169e-05
4.27296e-08
3.92448e-08
3.33175e-05
3.59629e-05
5.74444e-09
3.59619e-05
1.10821e-08
3.59628e-05
1.78728e-08
3.59613e-05
2.40535e-08
3.59589e-05
2.33063e-08
3.59599e-05
2.62218e-08
3.59621e-05
3.63095e-08
3.59608e-05
4.30911e-08
3.59579e-05
4.14125e-08
3.5959e-05
3.97929e-08
3.59636e-05
4.45719e-08
3.59684e-05
5.11797e-08
3.597e-05
5.35044e-08
3.59694e-05
4.91996e-08
3.59693e-05
4.30959e-08
3.59715e-05
3.91634e-08
3.59753e-05
3.88725e-08
3.59794e-05
4.00505e-08
3.59817e-05
4.03641e-08
3.79162e-08
3.59831e-05
3.88345e-05
5.6739e-09
3.88333e-05
1.23134e-08
3.8834e-05
1.71925e-08
3.88339e-05
2.41549e-08
3.88317e-05
2.55095e-08
3.88315e-05
2.64245e-08
3.88342e-05
3.36256e-08
3.88353e-05
4.1936e-08
3.88338e-05
4.28993e-08
3.88334e-05
4.01828e-08
3.88367e-05
4.12779e-08
3.8842e-05
4.59148e-08
3.88458e-05
4.97406e-08
3.88469e-05
4.80706e-08
3.88469e-05
4.30739e-08
3.88479e-05
3.81341e-08
3.88508e-05
3.59814e-08
3.88548e-05
3.60699e-08
3.88585e-05
3.66844e-08
3.58297e-08
3.88606e-05
4.19353e-05
5.42307e-09
4.19343e-05
1.32923e-08
4.19345e-05
1.6981e-08
4.19354e-05
2.3313e-08
4.19343e-05
2.65984e-08
4.19335e-05
2.71737e-08
4.19356e-05
3.15854e-08
4.19384e-05
3.90997e-08
4.1939e-05
4.23372e-08
4.19386e-05
4.05482e-08
4.19406e-05
3.92651e-08
4.1945e-05
4.14757e-08
4.195e-05
4.47526e-08
4.19529e-05
4.52179e-08
4.19541e-05
4.18809e-08
4.19548e-05
3.73759e-08
4.19568e-05
3.39785e-08
4.19601e-05
3.28571e-08
4.19638e-05
3.29011e-08
3.26613e-08
4.1967e-05
4.52835e-05
5.12038e-09
4.5283e-05
1.37238e-08
4.5283e-05
1.70423e-08
4.52842e-05
2.20587e-08
4.52845e-05
2.63587e-08
4.5284e-05
2.76399e-08
4.52854e-05
3.01809e-08
4.52887e-05
3.57635e-08
4.5291e-05
4.00263e-08
4.52919e-05
3.96561e-08
4.52933e-05
3.79069e-08
4.52968e-05
3.79483e-08
4.53017e-05
3.99133e-08
4.53059e-05
4.10149e-08
4.53084e-05
3.93723e-08
4.53099e-05
3.58943e-08
4.53114e-05
3.24575e-08
4.5314e-05
3.02792e-08
4.53172e-05
2.96131e-08
2.92544e-08
4.53207e-05
4.88989e-05
4.82696e-09
4.88991e-05
1.35414e-08
4.88991e-05
1.69754e-08
4.89005e-05
2.07132e-08
4.89018e-05
2.50767e-08
4.89022e-05
2.71941e-08
4.89035e-05
2.89072e-08
4.89066e-05
3.26275e-08
4.89101e-05
3.65577e-08
4.89124e-05
3.73711e-08
4.89142e-05
3.61113e-08
4.89171e-05
3.50668e-08
4.89213e-05
3.56484e-08
4.89259e-05
3.6417e-08
4.89295e-05
3.58051e-08
4.8932e-05
3.34293e-08
4.89339e-05
3.05455e-08
4.8936e-05
2.81169e-08
4.89389e-05
2.67076e-08
2.60601e-08
4.89421e-05
5.2803e-05
4.53045e-09
5.28037e-05
1.28236e-08
5.28042e-05
1.64553e-08
5.28057e-05
1.9278e-08
5.28077e-05
2.30903e-08
5.28092e-05
2.56886e-08
5.28108e-05
2.72623e-08
5.28138e-05
2.96442e-08
5.28177e-05
3.2619e-08
5.28211e-05
3.39727e-08
5.28239e-05
3.3381e-08
5.28267e-05
3.22179e-08
5.28306e-05
3.18092e-08
5.2835e-05
3.19956e-08
5.28391e-05
3.16505e-08
5.28424e-05
3.01687e-08
5.2845e-05
2.7947e-08
5.28473e-05
2.57751e-08
5.285e-05
2.40479e-08
2.30122e-08
5.2853e-05
5.70189e-05
4.17877e-09
5.702e-05
1.16774e-08
5.70211e-05
1.53249e-08
5.70229e-05
1.75747e-08
5.70253e-05
2.06176e-08
5.70277e-05
2.32744e-08
5.70301e-05
2.49135e-08
5.70332e-05
2.65265e-08
5.70373e-05
2.85334e-08
5.70414e-05
2.98372e-08
5.70451e-05
2.97563e-08
5.70484e-05
2.88565e-08
5.70522e-05
2.80387e-08
5.70564e-05
2.77332e-08
5.70608e-05
2.73258e-08
5.70646e-05
2.63806e-08
5.70677e-05
2.47699e-08
5.70705e-05
2.29917e-08
5.70732e-05
2.13608e-08
2.00615e-08
5.70762e-05
6.15714e-05
3.71306e-09
6.15729e-05
1.0168e-08
6.15747e-05
1.35592e-08
6.15768e-05
1.54412e-08
6.15797e-05
1.77274e-08
6.15829e-05
2.01082e-08
6.1586e-05
2.17723e-08
6.15895e-05
2.29899e-08
6.15938e-05
2.42725e-08
6.15983e-05
2.52856e-08
6.16026e-05
2.54677e-08
6.16066e-05
2.48708e-08
6.16106e-05
2.40235e-08
6.1615e-05
2.33691e-08
6.16195e-05
2.27944e-08
6.16238e-05
2.20666e-08
6.16276e-05
2.10183e-08
6.16308e-05
1.9751e-08
6.16338e-05
1.84484e-08
1.72821e-08
6.16365e-05
6.64874e-05
3.09676e-09
6.64893e-05
8.30644e-09
6.64917e-05
1.11792e-08
6.64943e-05
1.27594e-08
6.64976e-05
1.4441e-08
6.65014e-05
1.63352e-08
6.65053e-05
1.78558e-08
6.65094e-05
1.88767e-08
6.6514e-05
1.97014e-08
6.65189e-05
2.03685e-08
6.65238e-05
2.05965e-08
6.65284e-05
2.03037e-08
6.65327e-05
1.96775e-08
6.65371e-05
1.90034e-08
6.65415e-05
1.83659e-08
6.65459e-05
1.77006e-08
6.655e-05
1.68951e-08
6.65538e-05
1.59448e-08
6.65573e-05
1.49349e-08
1.396e-08
6.65606e-05
7.17959e-05
2.372e-09
7.17981e-05
6.14279e-09
7.1801e-05
8.25449e-09
7.18042e-05
9.49526e-09
7.1808e-05
1.07285e-08
7.18122e-05
1.21151e-08
7.18167e-05
1.33183e-08
7.18214e-05
1.41477e-08
7.18264e-05
1.47079e-08
7.18317e-05
1.50977e-08
7.18371e-05
1.52445e-08
7.18423e-05
1.50906e-08
7.18473e-05
1.46881e-08
7.18521e-05
1.41807e-08
7.18568e-05
1.36608e-08
7.18613e-05
1.31365e-08
7.18657e-05
1.25652e-08
7.18697e-05
1.19226e-08
7.18734e-05
1.12283e-08
1.05299e-08
7.18768e-05
7.75285e-05
7.75311e-05
7.75345e-05
7.75384e-05
7.75427e-05
7.75475e-05
7.75527e-05
7.75582e-05
7.75638e-05
7.75696e-05
7.75754e-05
7.75811e-05
7.75866e-05
7.75918e-05
7.75969e-05
7.76018e-05
7.76065e-05
7.76109e-05
7.7615e-05
7.76189e-05
3.76915e-06
6.29828e-08
3.67549e-06
9.36581e-08
3.57724e-06
9.8253e-08
3.48125e-06
9.59905e-08
3.38578e-06
9.54665e-08
3.28922e-06
9.656e-08
3.19071e-06
9.85181e-08
3.0896e-06
1.01105e-07
2.98588e-06
1.03716e-07
2.87994e-06
1.05942e-07
2.77032e-06
1.09625e-07
2.6569e-06
1.1342e-07
2.53987e-06
1.17025e-07
2.41933e-06
1.20542e-07
2.29817e-06
1.21164e-07
2.17777e-06
1.20394e-07
2.05934e-06
1.1843e-07
1.94586e-06
1.13482e-07
1.83621e-06
1.0965e-07
1.7246e-06
1.11613e-07
1.6067e-06
1.17898e-07
1.48504e-06
1.21658e-07
1.36612e-06
1.18922e-07
1.25593e-06
1.10188e-07
1.15832e-06
9.7612e-08
1.07482e-06
8.34957e-08
1.00778e-06
6.70415e-08
9.59331e-07
4.8451e-08
9.26921e-07
3.24106e-08
9.04399e-07
2.25217e-08
8.87729e-07
1.667e-08
8.77183e-07
1.05456e-08
8.71959e-07
5.22472e-09
8.67947e-07
4.01124e-09
8.64031e-07
3.91632e-09
8.61517e-07
2.51392e-09
8.59184e-07
2.33299e-09
8.55654e-07
3.52989e-09
8.51091e-07
4.56347e-09
8.45501e-07
5.59001e-09
8.39253e-07
6.24785e-09
8.3273e-07
6.52321e-09
8.25942e-07
6.78769e-09
8.20123e-07
5.81895e-09
8.16212e-07
3.91112e-09
8.13197e-07
3.01529e-09
8.10724e-07
2.47261e-09
8.09233e-07
1.4909e-09
8.07573e-07
1.66067e-09
8.04908e-07
2.665e-09
8.02858e-07
2.0493e-09
8.02571e-07
2.87635e-10
8.02816e-07
-2.44987e-10
8.02473e-07
3.42244e-10
8.02082e-07
3.90871e-10
8.02266e-07
-1.8364e-10
8.0281e-07
-5.43607e-10
8.03336e-07
-5.26624e-10
8.03868e-07
-5.31571e-10
8.04438e-07
-5.70157e-10
8.05004e-07
-5.65583e-10
8.05454e-07
-4.50156e-10
8.0582e-07
-3.66482e-10
8.06088e-07
-2.6796e-10
8.06317e-07
-2.2835e-10
8.06478e-07
-1.61436e-10
8.06622e-07
-1.43767e-10
8.06725e-07
-1.03273e-10
8.06812e-07
-8.66991e-11
8.06879e-07
-6.71826e-11
8.06917e-07
-3.77258e-11
8.06964e-07
-4.74149e-11
8.06965e-07
-1.03575e-12
8.07008e-07
-4.25067e-11
8.06987e-07
2.02882e-11
8.07029e-07
-4.18333e-11
8.07003e-07
2.57942e-11
8.07037e-07
-3.37449e-11
8.07021e-07
1.57386e-11
8.07036e-07
-1.43091e-11
8.0704e-07
-4.27889e-12
8.07032e-07
8.17601e-12
8.07052e-07
-1.97943e-11
8.07034e-07
1.72265e-11
8.07049e-07
-1.50919e-11
8.07046e-07
3.60858e-12
8.07037e-07
8.52858e-12
8.07054e-07
-1.70389e-11
8.0703e-07
2.45518e-11
8.07041e-07
-1.08617e-11
8.07032e-07
8.44828e-12
8.07001e-07
3.15208e-11
8.07012e-07
-1.12073e-11
8.06952e-07
5.94688e-11
8.06901e-07
5.16151e-11
8.06883e-07
1.79664e-11
8.0667e-07
2.13165e-10
8.06633e-07
3.68275e-11
8.06384e-07
2.48636e-10
1.08103e-09
4.15912e-06
5.50329e-08
4.16456e-06
8.82218e-08
4.15986e-06
1.02954e-07
4.15163e-06
1.04219e-07
4.14286e-06
1.04237e-07
4.13291e-06
1.06503e-07
4.12066e-06
1.10773e-07
4.10501e-06
1.16759e-07
4.08615e-06
1.22575e-07
4.06378e-06
1.28307e-07
4.03757e-06
1.35837e-07
4.00698e-06
1.4401e-07
3.97159e-06
1.52419e-07
3.93164e-06
1.60491e-07
3.88707e-06
1.65728e-07
3.83957e-06
1.67902e-07
3.78907e-06
1.68926e-07
3.73605e-06
1.66503e-07
3.68239e-06
1.6331e-07
3.62559e-06
1.68416e-07
3.56309e-06
1.80397e-07
3.49547e-06
1.89278e-07
3.42514e-06
1.89252e-07
3.35454e-06
1.80785e-07
3.28524e-06
1.66913e-07
3.21851e-06
1.5023e-07
3.15462e-06
1.30927e-07
3.09621e-06
1.06863e-07
3.04451e-06
8.41126e-08
2.99537e-06
7.16639e-08
2.94864e-06
6.33917e-08
2.90757e-06
5.16226e-08
2.87051e-06
4.22769e-08
2.83466e-06
3.98631e-08
2.80011e-06
3.84731e-08
2.7676e-06
3.50219e-08
2.73699e-06
3.29436e-08
2.70744e-06
3.30809e-08
2.67842e-06
3.35763e-08
2.65055e-06
3.34624e-08
2.62378e-06
3.30228e-08
2.59734e-06
3.29593e-08
2.57211e-06
3.20134e-08
2.54948e-06
2.8458e-08
2.52896e-06
2.44252e-08
2.51017e-06
2.18019e-08
2.49418e-06
1.84648e-08
2.48078e-06
1.48909e-08
2.46806e-06
1.43804e-08
2.45585e-06
1.48762e-08
2.44598e-06
1.19232e-08
2.43892e-06
7.34495e-09
2.43331e-06
5.36627e-09
2.42834e-06
5.30992e-09
2.42446e-06
4.27057e-09
2.42202e-06
2.26019e-09
2.4208e-06
6.69537e-10
2.42056e-06
-2.77465e-10
2.42117e-06
-1.14274e-09
2.42241e-06
-1.81439e-09
2.42397e-06
-2.12582e-09
2.42554e-06
-2.01979e-09
2.42699e-06
-1.81557e-09
2.42824e-06
-1.51647e-09
2.42931e-06
-1.30279e-09
2.4302e-06
-1.05261e-09
2.43096e-06
-9.01418e-10
2.43157e-06
-7.12969e-10
2.43206e-06
-5.77947e-10
2.43243e-06
-4.34047e-10
2.43269e-06
-3.01128e-10
2.43288e-06
-2.34007e-10
2.43299e-06
-1.10827e-10
2.43308e-06
-1.32164e-10
2.43311e-06
-1.05587e-11
2.43316e-06
-9.39313e-11
2.43316e-06
2.74236e-11
2.4332e-06
-7.26904e-11
2.43319e-06
2.69597e-11
2.43322e-06
-4.41607e-11
2.43321e-06
6.27641e-12
2.43323e-06
-1.26608e-11
2.43322e-06
-1.13282e-11
2.43324e-06
1.20258e-12
2.43322e-06
-3.7099e-12
2.43324e-06
-1.40309e-11
2.43322e-06
2.73737e-11
2.43324e-06
-3.73875e-11
2.43322e-06
4.98109e-11
2.43324e-06
-2.76772e-11
2.43321e-06
3.76733e-11
2.43321e-06
2.96175e-11
2.43317e-06
2.37975e-11
2.43314e-06
8.80152e-11
2.43307e-06
1.25385e-10
2.43303e-06
5.66701e-11
2.43282e-06
4.22612e-10
2.43271e-06
1.47469e-10
2.43258e-06
3.81626e-10
2.12939e-09
4.49332e-06
5.23215e-08
4.50114e-06
8.04033e-08
4.50492e-06
9.91741e-08
4.50524e-06
1.03895e-07
4.50537e-06
1.04111e-07
4.50608e-06
1.05796e-07
4.50715e-06
1.09702e-07
4.50776e-06
1.16143e-07
4.50779e-06
1.22543e-07
4.507e-06
1.29102e-07
4.50528e-06
1.37551e-07
4.50245e-06
1.4684e-07
4.49801e-06
1.56864e-07
4.4922e-06
1.66302e-07
4.48419e-06
1.7374e-07
4.47461e-06
1.77477e-07
4.46328e-06
1.80256e-07
4.44923e-06
1.80551e-07
4.43435e-06
1.78195e-07
4.41879e-06
1.83976e-07
4.40181e-06
1.97374e-07
4.38356e-06
2.07526e-07
4.36403e-06
2.08788e-07
4.34325e-06
2.0156e-07
4.32117e-06
1.88994e-07
4.29833e-06
1.73075e-07
4.27485e-06
1.54403e-07
4.25136e-06
1.30349e-07
4.22926e-06
1.0621e-07
4.20732e-06
9.36115e-08
4.18459e-06
8.61235e-08
4.1626e-06
7.36069e-08
4.14101e-06
6.38677e-08
4.11862e-06
6.22488e-08
4.09635e-06
6.07431e-08
4.07493e-06
5.64427e-08
4.05419e-06
5.36924e-08
4.03402e-06
5.32432e-08
4.01391e-06
5.36883e-08
3.99355e-06
5.38215e-08
3.97316e-06
5.34138e-08
3.95243e-06
5.36889e-08
3.9318e-06
5.26401e-08
3.91263e-06
4.76306e-08
3.89475e-06
4.23066e-08
3.87742e-06
3.91344e-08
3.8614e-06
3.44819e-08
3.847e-06
2.92886e-08
3.833e-06
2.8382e-08
3.81926e-06
2.86209e-08
3.80713e-06
2.40541e-08
3.79696e-06
1.75096e-08
3.78786e-06
1.44684e-08
3.77945e-06
1.37146e-08
3.77217e-06
1.15558e-08
3.76622e-06
8.20872e-09
3.76144e-06
5.44695e-09
3.75772e-06
3.44364e-09
3.75506e-06
1.51838e-09
3.75338e-06
-1.35444e-10
3.75249e-06
-1.23405e-09
3.75217e-06
-1.70329e-09
3.75227e-06
-1.91506e-09
3.7527e-06
-1.94354e-09
3.75343e-06
-2.03402e-09
3.75445e-06
-2.07452e-09
3.75572e-06
-2.17275e-09
3.75714e-06
-2.12509e-09
3.75856e-06
-1.99693e-09
3.75984e-06
-1.72057e-09
3.76091e-06
-1.36942e-09
3.76172e-06
-1.04696e-09
3.76229e-06
-6.82126e-10
3.76268e-06
-5.12367e-10
3.7629e-06
-2.3666e-10
3.76305e-06
-2.41314e-10
3.76311e-06
-3.56365e-11
3.76317e-06
-1.3576e-10
3.76318e-06
2.61999e-11
3.76322e-06
-8.63648e-11
3.7632e-06
2.69556e-11
3.76323e-06
-4.79174e-11
3.76321e-06
1.12668e-11
3.76323e-06
-2.23984e-11
3.76322e-06
9.46432e-12
3.76323e-06
-2.28665e-11
3.76322e-06
3.28433e-11
3.76323e-06
-4.13388e-11
3.76321e-06
6.32781e-11
3.76323e-06
-4.04524e-11
3.7632e-06
6.84476e-11
3.76321e-06
1.93745e-11
3.76317e-06
5.56457e-11
3.76314e-06
1.18298e-10
3.76311e-06
1.58101e-10
3.76304e-06
1.30131e-10
3.76294e-06
5.16323e-10
3.76279e-06
3.06194e-10
3.76275e-06
4.16596e-10
2.67773e-09
4.85529e-06
5.22251e-08
4.86115e-06
7.45449e-08
4.86631e-06
9.40151e-08
4.86806e-06
1.02149e-07
4.86852e-06
1.03652e-07
4.86928e-06
1.05029e-07
4.87049e-06
1.08495e-07
4.87196e-06
1.14671e-07
4.87355e-06
1.20959e-07
4.87521e-06
1.27435e-07
4.87686e-06
1.35906e-07
4.87839e-06
1.45312e-07
4.87963e-06
1.55624e-07
4.88081e-06
1.65122e-07
4.88139e-06
1.73157e-07
4.88153e-06
1.77337e-07
4.8812e-06
1.80588e-07
4.87922e-06
1.82525e-07
4.87671e-06
1.8071e-07
4.87484e-06
1.85846e-07
4.8735e-06
1.98708e-07
4.87282e-06
2.08213e-07
4.87228e-06
2.09323e-07
4.87113e-06
2.02708e-07
4.86878e-06
1.91344e-07
4.8652e-06
1.76663e-07
4.86069e-06
1.58906e-07
4.85505e-06
1.35997e-07
4.84905e-06
1.12201e-07
4.84338e-06
9.92821e-08
4.8373e-06
9.22047e-08
4.83057e-06
8.03399e-08
4.82309e-06
7.13492e-08
4.81471e-06
7.06318e-08
4.80596e-06
6.94899e-08
4.79731e-06
6.50932e-08
4.78889e-06
6.21135e-08
4.78097e-06
6.1164e-08
4.77339e-06
6.12678e-08
4.76575e-06
6.14566e-08
4.75799e-06
6.11797e-08
4.74976e-06
6.19159e-08
4.74098e-06
6.14171e-08
4.73237e-06
5.62384e-08
4.72424e-06
5.04436e-08
4.71629e-06
4.7084e-08
4.70872e-06
4.20513e-08
4.70168e-06
3.6322e-08
4.69471e-06
3.53566e-08
4.68769e-06
3.564e-08
4.68118e-06
3.05635e-08
4.67537e-06
2.33172e-08
4.66995e-06
1.98942e-08
4.66481e-06
1.88557e-08
4.66015e-06
1.62147e-08
4.65607e-06
1.22911e-08
4.6525e-06
9.01345e-09
4.64944e-06
6.50642e-09
4.6469e-06
4.05564e-09
4.64489e-06
1.87653e-09
4.64335e-06
3.07505e-10
4.64223e-06
-5.89829e-10
4.64148e-06
-1.16436e-09
4.64106e-06
-1.52625e-09
4.64095e-06
-1.917e-09
4.64115e-06
-2.27745e-09
4.64166e-06
-2.68311e-09
4.64247e-06
-2.93132e-09
4.64348e-06
-3.00649e-09
4.64459e-06
-2.83624e-09
4.64567e-06
-2.45243e-09
4.64664e-06
-2.01245e-09
4.64741e-06
-1.45496e-09
4.648e-06
-1.09559e-09
4.64839e-06
-6.28407e-10
4.64865e-06
-5.04876e-10
4.64879e-06
-1.7727e-10
4.64889e-06
-2.34974e-10
4.64892e-06
-1.49263e-12
4.64896e-06
-1.26323e-10
4.64895e-06
3.76231e-11
4.64897e-06
-6.82797e-11
4.64895e-06
2.66227e-11
4.64896e-06
-2.94567e-11
4.64895e-06
1.6264e-11
4.64895e-06
-1.81559e-11
4.64895e-06
3.31946e-11
4.64894e-06
-3.42078e-11
4.64894e-06
6.87944e-11
4.64894e-06
-3.91852e-11
4.64892e-06
8.26544e-11
4.64892e-06
2.58469e-11
4.6489e-06
6.59611e-11
4.64887e-06
1.55793e-10
4.64886e-06
1.62431e-10
4.64878e-06
2.09631e-10
4.64877e-06
5.34029e-10
4.64861e-06
4.63019e-10
4.64863e-06
3.95773e-10
2.83981e-09
5.24558e-06
5.29084e-08
5.24972e-06
7.04082e-08
5.25486e-06
8.8881e-08
5.25766e-06
9.93457e-08
5.25867e-06
1.02637e-07
5.25929e-06
1.04416e-07
5.26015e-06
1.07632e-07
5.26118e-06
1.13642e-07
5.26248e-06
1.19653e-07
5.26415e-06
1.25769e-07
5.26621e-06
1.33848e-07
5.26829e-06
1.4323e-07
5.27032e-06
1.53599e-07
5.27264e-06
1.62801e-07
5.27484e-06
1.70956e-07
5.27696e-06
1.75218e-07
5.27918e-06
1.78367e-07
5.28025e-06
1.81449e-07
5.28073e-06
1.80231e-07
5.28214e-06
1.84433e-07
5.28449e-06
1.96359e-07
5.28773e-06
2.04977e-07
5.29148e-06
2.05573e-07
5.29495e-06
1.99241e-07
5.2974e-06
1.88891e-07
5.29856e-06
1.75499e-07
5.29884e-06
1.58631e-07
5.29785e-06
1.36982e-07
5.29598e-06
1.14079e-07
5.29455e-06
1.00713e-07
5.29343e-06
9.3318e-08
5.29188e-06
8.18877e-08
5.28976e-06
7.34711e-08
5.28722e-06
7.3178e-08
5.28448e-06
7.22282e-08
5.28166e-06
6.79136e-08