/*--------------------------------*- C++ -*----------------------------------*\
  =========                 |
  \\      /  F ield         | OpenFOAM: The Open Source CFD Toolbox
   \\    /   O peration     | Website:  https://openfoam.org
    \\  /    A nd           | Version:  10
     \\/     M anipulation  |
\*---------------------------------------------------------------------------*/
FoamFile
{
    format      ascii;
    class       volVectorField;
    location    "0.3";
    object      U;
}
// * * * * * * * * * * * * * * * * * * * * * * * * * * * * * * * * * * * * * //

dimensions      [0 1 -1 0 0 0 0];

internalField   nonuniform List<vector> 
4800
(
(0.96049 0.000153072 0)
(1.03858 -0.000321958 0)
(0.964265 0.000639035 0)
(1.03444 -0.000682895 0)
(0.966523 0.00126877 0)
(1.03264 -0.00131494 0)
(0.967059 -0.000470377 0)
(1.02778 0.0001411 0)
(0.97276 -0.000443127 0)
(1.02369 -0.000283965 0)
(0.974506 0.000760853 0)
(1.02038 0.000557692 0)
(0.977271 0.00168692 0)
(1.0173 0.000304097 0)
(0.979006 0.00132344 0)
(1.01426 0.000104599 0)
(0.980225 0.00067161 0)
(1.01098 9.59269e-05 0)
(0.981907 0.000660247 0)
(1.00876 0.00031904 0)
(0.982688 7.32749e-05 0)
(1.0145 -0.000248291 0)
(0.986692 0.000594252 0)
(1.0107 -0.000543935 0)
(0.988855 0.0010971 0)
(1.00927 -0.00108901 0)
(0.989261 -0.000489833 0)
(1.00524 6.20666e-05 0)
(0.993597 -0.000398674 0)
(1.00245 -0.000235213 0)
(0.994011 0.000884143 0)
(1.00073 0.000531325 0)
(0.995539 0.00173976 0)
(0.999329 0.000318062 0)
(0.995909 0.00134365 0)
(0.998096 7.41317e-05 0)
(0.995618 0.000760822 0)
(0.996633 0.000394784 0)
(0.995852 0.00144568 0)
(0.996093 0.00154543 0)
(0.995908 0.000169299 0)
(1.00263 -0.000323347 0)
(0.997369 0.000644885 0)
(1.00135 -0.000573415 0)
(0.997787 0.0010791 0)
(1.00146 -0.00101153 0)
(0.997184 -0.000447343 0)
(0.999277 6.86501e-05 0)
(0.998723 -0.000456165 0)
(0.998275 -9.5745e-05 0)
(0.997478 0.000620687 0)
(0.998198 0.000771789 0)
(0.998088 0.00134628 0)
(0.99825 0.000710215 0)
(0.997942 0.000924021 0)
(0.997947 0.000506154 0)
(0.997274 0.000613139 0)
(0.997112 0.000858511 0)
(0.997172 0.00144088 0)
(0.997055 0.00202724 0)
(0.999419 0.000144697 0)
(1.00019 -0.000303128 0)
(0.999741 0.000643616 0)
(0.999969 -0.000542705 0)
(0.999593 0.00103611 0)
(1.00047 -0.000983136 0)
(0.998719 -0.000480133 0)
(0.998839 0.000133351 0)
(0.999357 -0.0005452 0)
(0.998059 8.38481e-05 0)
(0.997942 0.000527727 0)
(0.998316 0.000930673 0)
(0.998527 0.00125935 0)
(0.998726 0.000804482 0)
(0.998593 0.000936247 0)
(0.998558 0.00063327 0)
(0.998068 0.000758585 0)
(0.997832 0.00111079 0)
(0.997979 0.00149399 0)
(0.997833 0.00214795 0)
(0.999964 0.000147708 0)
(0.999927 -0.000277224 0)
(1.00008 0.000578803 0)
(0.99991 -0.000444844 0)
(0.999885 0.000887138 0)
(1.00043 -0.000752795 0)
(0.99897 -0.000548898 0)
(0.99891 0.00025505 0)
(0.999428 -0.000599869 0)
(0.998107 0.000237668 0)
(0.998074 0.000426231 0)
(0.998471 0.000911088 0)
(0.99867 0.00113895 0)
(0.998966 0.000820054 0)
(0.998876 0.000931296 0)
(0.998849 0.000737841 0)
(0.998478 0.000925436 0)
(0.998204 0.0013453 0)
(0.998411 0.00163117 0)
(0.998308 0.00229423 0)
(1.00002 0.000141351 0)
(0.999924 -0.000262126 0)
(1.00011 0.000554716 0)
(0.999933 -0.000400085 0)
(0.999924 0.000815166 0)
(1.00039 -0.000655539 0)
(0.999054 -0.000618473 0)
(0.998934 0.00038226 0)
(0.99943 -0.000683146 0)
(0.998162 0.000301852 0)
(0.998139 0.000455776 0)
(0.99857 0.000824451 0)
(0.998694 0.0012029 0)
(0.999014 0.000771547 0)
(0.998973 0.00102903 0)
(0.998935 0.000903324 0)
(0.998656 0.00102265 0)
(0.998383 0.00154438 0)
(0.998607 0.00180031 0)
(0.998582 0.00230784 0)
(1.00002 0.000127585 0)
(0.999936 -0.000218574 0)
(1.00011 0.00047153 0)
(0.999947 -0.000287908 0)
(0.999921 0.000657749 0)
(1.00035 -0.000461451 0)
(0.999108 -0.000658117 0)
(0.998935 0.000420072 0)
(0.999439 -0.000611261 0)
(0.998235 0.000288928 0)
(0.99817 0.000537376 0)
(0.998632 0.000712477 0)
(0.998701 0.00120599 0)
(0.999018 0.000810479 0)
(0.999013 0.00109364 0)
(0.998951 0.00107 0)
(0.998753 0.00112389 0)
(0.998508 0.00168876 0)
(0.998722 0.00199439 0)
(0.998777 0.00235164 0)
(1.00002 0.000113335 0)
(0.99995 -0.000173643 0)
(1.0001 0.000401467 0)
(0.999959 -0.00020504 0)
(0.999918 0.000559461 0)
(1.00029 -0.000338001 0)
(0.999164 -0.000683319 0)
(0.998947 0.000448076 0)
(0.999432 -0.000510016 0)
(0.998313 0.000205241 0)
(0.998208 0.000600811 0)
(0.998692 0.000680392 0)
(0.998715 0.00120379 0)
(0.99901 0.000872546 0)
(0.999047 0.00113867 0)
(0.998965 0.00125223 0)
(0.998838 0.00123739 0)
(0.998639 0.00176672 0)
(0.998822 0.00214684 0)
(0.99893 0.00242715 0)
(1.00002 9.721e-05 0)
(0.99996 -0.000115922 0)
(1.0001 0.000308057 0)
(0.999969 -0.000103338 0)
(0.999911 0.00044357 0)
(1.00024 -0.000235357 0)
(0.999213 -0.0006184 0)
(0.998958 0.000388223 0)
(0.999426 -0.000402749 0)
(0.9984 0.00020606 0)
(0.998249 0.000635546 0)
(0.998743 0.000668524 0)
(0.998733 0.00121872 0)
(0.999012 0.000954138 0)
(0.999101 0.0011834 0)
(0.998979 0.0014491 0)
(0.998899 0.0013789 0)
(0.998772 0.00179667 0)
(0.998933 0.00223478 0)
(0.999067 0.00250985 0)
(1.00002 7.87177e-05 0)
(0.999967 -5.59797e-05 0)
(1.0001 0.000223994 0)
(0.999976 -3.33146e-05 0)
(0.999906 0.000379766 0)
(1.00018 -0.000177216 0)
(0.999255 -0.000542956 0)
(0.998976 0.000345738 0)
(0.999422 -0.000305836 0)
(0.998477 0.000220454 0)
(0.998289 0.000649564 0)
(0.998807 0.000635733 0)
(0.998766 0.00126695 0)
(0.999007 0.00107907 0)
(0.999166 0.00117959 0)
(0.999015 0.00158423 0)
(0.998944 0.00156651 0)
(0.998904 0.00183429 0)
(0.999063 0.00229172 0)
(0.999196 0.00259145 0)
(1.00002 5.99893e-05 0)
(0.999969 7.21184e-06 0)
(1.0001 0.000144495 0)
(0.999984 1.61442e-05 0)
(0.999893 0.000356422 0)
(1.00013 -0.000166812 0)
(0.999294 -0.000430395 0)
(0.998989 0.000326501 0)
(0.999419 -0.000255439 0)
(0.99856 0.000254306 0)
(0.998324 0.000736853 0)
(0.998872 0.000597224 0)
(0.998821 0.00127921 0)
(0.998993 0.00125538 0)
(0.999232 0.00119731 0)
(0.999083 0.00164635 0)
(0.998979 0.00175386 0)
(0.999014 0.00188987 0)
(0.999205 0.00228644 0)
(0.999328 0.0026192 0)
(1.00002 4.34896e-05 0)
(0.999966 6.53458e-05 0)
(1.00009 9.02604e-05 0)
(0.999996 2.01196e-05 0)
(0.999878 0.0003633 0)
(1.00008 -0.000148575 0)
(0.999333 -0.000357957 0)
(0.998997 0.000355326 0)
(0.999419 -0.000206687 0)
(0.998654 0.00025237 0)
(0.998348 0.000850588 0)
(0.998928 0.000598235 0)
(0.998909 0.0012206 0)
(0.998982 0.00144056 0)
(0.999275 0.00129527 0)
(0.999175 0.00165775 0)
(0.999023 0.00189625 0)
(0.999096 0.00199689 0)
(0.999344 0.00227748 0)
(0.999476 0.00260916 0)
(1.00001 2.95563e-05 0)
(0.999959 0.000110362 0)
(1.00008 6.95093e-05 0)
(1.00001 -1.49135e-05 0)
(0.999861 0.00038736 0)
(1.00003 -0.00011299 0)
(0.999375 -0.000322621 0)
(0.999003 0.000406883 0)
(0.999405 -0.000129011 0)
(0.998761 0.00019919 0)
(0.998383 0.000954711 0)
(0.998958 0.00069519 0)
(0.99902 0.00113556 0)
(0.999001 0.00155421 0)
(0.999294 0.0014372 0)
(0.999269 0.00166965 0)
(0.999092 0.00199088 0)
(0.999159 0.00211852 0)
(0.999457 0.00230085 0)
(0.999626 0.00257323 0)
(1.00001 2.17545e-05 0)
(0.99995 0.000134688 0)
(1.00006 8.82241e-05 0)
(1.00003 -7.74018e-05 0)
(0.999851 0.000391785 0)
(0.999972 -3.70784e-05 0)
(0.999417 -0.000311328 0)
(0.999015 0.000449898 0)
(0.999377 2.03934e-06 0)
(0.998875 0.000153794 0)
(0.99844 0.000989793 0)
(0.998966 0.000858701 0)
(0.999128 0.00110209 0)
(0.999051 0.0015985 0)
(0.999303 0.00157317 0)
(0.999358 0.00170337 0)
(0.999181 0.00204051 0)
(0.999216 0.00221148 0)
(0.999541 0.00234083 0)
(0.999761 0.00254551 0)
(1.00001 1.89933e-05 0)
(0.999943 0.000136618 0)
(1.00003 0.000137359 0)
(1.00004 -0.00013755 0)
(0.999851 0.000351642 0)
(0.999908 6.877e-05 0)
(0.999455 -0.000291182 0)
(0.999041 0.000427261 0)
(0.999334 0.000184595 0)
(0.998976 0.000151267 0)
(0.99853 0.000956023 0)
(0.998974 0.00100422 0)
(0.99922 0.00113054 0)
(0.999125 0.00162008 0)
(0.999313 0.00169827 0)
(0.99943 0.00174385 0)
(0.999281 0.00204669 0)
(0.999277 0.00227618 0)
(0.999606 0.00237679 0)
(0.999876 0.00253036 0)
(1.00001 2.17355e-05 0)
(0.99994 0.000119421 0)
(0.999996 0.000196596 0)
(1.00004 -0.000160584 0)
(0.999864 0.000260761 0)
(0.999846 0.000188919 0)
(0.999477 -0.000223482 0)
(0.999088 0.000361218 0)
(0.999298 0.000351619 0)
(0.999051 0.000241963 0)
(0.998637 0.000912521 0)
(0.998995 0.00109893 0)
(0.999302 0.00119213 0)
(0.999215 0.00164134 0)
(0.999323 0.0018076 0)
(0.999478 0.0017975 0)
(0.999392 0.00202275 0)
(0.99935 0.00230605 0)
(0.999653 0.00241007 0)
(0.999968 0.00251107 0)
(1.00001 2.97874e-05 0)
(0.999943 8.81609e-05 0)
(0.999964 0.000251124 0)
(1.00003 -0.000128413 0)
(0.999891 0.000145768 0)
(0.9998 0.000278407 0)
(0.999481 -9.88727e-05 0)
(0.999143 0.000309287 0)
(0.999282 0.000450529 0)
(0.999107 0.000383207 0)
(0.998745 0.000904617 0)
(0.999033 0.00115518 0)
(0.999381 0.00123794 0)
(0.999319 0.00165162 0)
(0.999342 0.00189846 0)
(0.999497 0.00188639 0)
(0.999494 0.00200396 0)
(0.999446 0.00228018 0)
(0.999692 0.00243308 0)
(1.00004 0.00249182 0)
(1 3.8138e-05 0)
(0.999951 6.11917e-05 0)
(0.999939 0.000277777 0)
(1.00001 -5.14779e-05 0)
(0.999923 4.05833e-05 0)
(0.999777 0.000283831 0)
(0.999473 7.09232e-05 0)
(0.999197 0.000303473 0)
(0.999292 0.000487424 0)
(0.999161 0.000511289 0)
(0.998844 0.000951789 0)
(0.999075 0.00120506 0)
(0.999458 0.00127232 0)
(0.999444 0.00163227 0)
(0.999388 0.00195323 0)
(0.999495 0.00198985 0)
(0.999562 0.00202699 0)
(0.999553 0.00221716 0)
(0.999745 0.00242234 0)
(1.00008 0.00248044 0)
(1 4.52254e-05 0)
(0.999963 4.18523e-05 0)
(0.999924 0.000272565 0)
(0.999979 5.31456e-05 0)
(0.999946 -1.92605e-05 0)
(0.999789 0.000220722 0)
(0.999475 0.000229218 0)
(0.999231 0.000379751 0)
(0.999317 0.000514866 0)
(0.999231 0.000587396 0)
(0.998947 0.00100123 0)
(0.999117 0.00127664 0)
(0.999522 0.00132162 0)
(0.999579 0.0015967 0)
(0.999471 0.00195077 0)
(0.999498 0.00207373 0)
(0.999585 0.00208698 0)
(0.999646 0.00218544 0)
(0.999823 0.00237529 0)
(1.00011 0.00246343 0)
(1 4.82963e-05 0)
(0.999975 3.7273e-05 0)
(0.999925 0.000239617 0)
(0.999945 0.000160457 0)
(0.999952 -9.58651e-06 0)
(0.999823 0.000143586 0)
(0.999504 0.000302997 0)
(0.999261 0.000502749 0)
(0.999336 0.000579227 0)
(0.999305 0.000637601 0)
(0.999067 0.00101614 0)
(0.99917 0.0013435 0)
(0.999568 0.00140029 0)
(0.999707 0.00157455 0)
(0.999592 0.00190864 0)
(0.999533 0.002102 0)
(0.999593 0.00213697 0)
(0.999704 0.00220172 0)
(0.9999 0.00231994 0)
(1.00015 0.00241968 0)
(1 4.47777e-05 0)
(0.999984 5.40092e-05 0)
(0.999936 0.000188712 0)
(0.999919 0.000237931 0)
(0.999939 7.03757e-05 0)
(0.999862 8.16754e-05 0)
(0.999567 0.000295986 0)
(0.999302 0.000609317 0)
(0.999346 0.000708876 0)
(0.999375 0.000696734 0)
(0.999203 0.00100041 0)
(0.999254 0.00136527 0)
(0.999606 0.00148312 0)
(0.99981 0.00159635 0)
(0.999727 0.00185562 0)
(0.999599 0.00207513 0)
(0.999617 0.00214981 0)
(0.99974 0.00221307 0)
(0.999951 0.002286 0)
(1.00021 0.00236765 0)
(1 3.80236e-05 0)
(0.999988 8.04803e-05 0)
(0.999954 0.000146579 0)
(0.999912 0.000263462 0)
(0.999911 0.000181262 0)
(0.999883 8.23597e-05 0)
(0.999658 0.00025537 0)
(0.999386 0.000644304 0)
(0.999355 0.000853044 0)
(0.99941 0.000817927 0)
(0.999337 0.000986709 0)
(0.999372 0.00132837 0)
(0.999667 0.00153212 0)
(0.999891 0.00164647 0)
(0.999851 0.0018321 0)
(0.999694 0.00203407 0)
(0.999662 0.00213762 0)
(0.999778 0.00218433 0)
(0.999995 0.00225482 0)
(1.00028 0.00232212 0)
(1 2.84236e-05 0)
(0.999988 0.000110364 0)
(0.999967 0.000125071 0)
(0.999921 0.000241124 0)
(0.999887 0.000282913 0)
(0.999883 0.000160449 0)
(0.999746 0.000219609 0)
(0.999504 0.000605213 0)
(0.999402 0.000947233 0)
(0.999426 0.000983968 0)
(0.999429 0.00103567 0)
(0.999514 0.00127423 0)
(0.999766 0.00150794 0)
(0.999975 0.0016779 0)
(0.99996 0.00183885 0)
(0.999791 0.00200786 0)
(0.999709 0.0021141 0)
(0.999815 0.00214082 0)
(1.00005 0.00220301 0)
(1.00033 0.00226743 0)
(1 2.16937e-05 0)
(0.999983 0.000131917 0)
(0.999971 0.000130181 0)
(0.999946 0.000203924 0)
(0.99988 0.000341227 0)
(0.999857 0.000281344 0)
(0.999809 0.000235916 0)
(0.999655 0.000535008 0)
(0.9995 0.000953912 0)
(0.999443 0.00112881 0)
(0.999476 0.00114839 0)
(0.999619 0.00125194 0)
(0.999896 0.00144005 0)
(1.0001 0.00164135 0)
(1.00007 0.00183893 0)
(0.999889 0.00199941 0)
(0.999756 0.00209696 0)
(0.999844 0.00211872 0)
(1.0001 0.00214394 0)
(1.0004 0.00219251 0)
(1 2.00234e-05 0)
(0.99998 0.000137936 0)
(0.999964 0.000159987 0)
(0.999968 0.000172478 0)
(0.999897 0.000340781 0)
(0.999833 0.000401225 0)
(0.999831 0.000326341 0)
(0.999786 0.000480014 0)
(0.999653 0.000880869 0)
(0.999509 0.00119888 0)
(0.999487 0.00128822 0)
(0.999678 0.00130167 0)
(1.00001 0.0013844 0)
(1.00025 0.001557 0)
(1.00022 0.00177835 0)
(0.999994 0.00198232 0)
(0.999806 0.00209086 0)
(0.999851 0.00211541 0)
(1.00012 0.00210458 0)
(1.00045 0.00211132 0)
(0.999999 2.48912e-05 0)
(0.999981 0.000130331 0)
(0.99995 0.000194362 0)
(0.999981 0.000168952 0)
(0.999936 0.00030859 0)
(0.999827 0.000475438 0)
(0.999819 0.00045301 0)
(0.999881 0.000483516 0)
(0.999826 0.000790406 0)
(0.999638 0.00116589 0)
(0.999521 0.00138156 0)
(0.999669 0.00140874 0)
(1.00006 0.00138065 0)
(1.00038 0.00146957 0)
(1.00041 0.00166631 0)
(1.00016 0.00190556 0)
(0.999876 0.00207549 0)
(0.999851 0.00212014 0)
(1.00009 0.00209464 0)
(1.00047 0.00206377 0)
(0.999996 3.41491e-05 0)
(0.999986 0.000115554 0)
(0.99994 0.000222127 0)
(0.999979 0.000197479 0)
(0.999981 0.000274667 0)
(0.999856 0.000486187 0)
(0.999799 0.00057422 0)
(0.999916 0.000556565 0)
(0.999979 0.000715704 0)
(0.999816 0.00107256 0)
(0.999613 0.00138205 0)
(0.999658 0.00149805 0)
(1.00004 0.00144873 0)
(1.00047 0.00142286 0)
(1.0006 0.0015455 0)
(1.00038 0.00177127 0)
(1.00002 0.00200228 0)
(0.999864 0.00210825 0)
(1.00004 0.00209917 0)
(1.00042 0.00205777 0)
(0.999993 4.52226e-05 0)
(0.999994 0.000105424 0)
(0.99994 0.000232037 0)
(0.999968 0.000241742 0)
(1.00002 0.000262295 0)
(0.999914 0.000456254 0)
(0.999805 0.000642733 0)
(0.99991 0.00066273 0)
(1.00008 0.000706088 0)
(1.00001 0.000964991 0)
(0.99977 0.00130139 0)
(0.999686 0.00152504 0)
(0.999981 0.00152315 0)
(1.00045 0.00144596 0)
(1.00073 0.00145818 0)
(1.00061 0.00162033 0)
(1.00024 0.00186306 0)
(0.999955 0.0020415 0)
(1.00001 0.00209307 0)
(1.00033 0.00206042 0)
(0.999991 5.36361e-05 0)
(1 0.000104742 0)
(0.999952 0.000226345 0)
(0.999956 0.000284004 0)
(1.00004 0.000279951 0)
(0.999987 0.000419685 0)
(0.999848 0.00064916 0)
(0.999894 0.000751608 0)
(1.00011 0.000751828 0)
(1.00016 0.000889889 0)
(0.999971 0.00117881 0)
(0.999789 0.00146235 0)
(0.999937 0.00156338 0)
(1.00038 0.00149114 0)
(1.00075 0.00144075 0)
(1.0008 0.00149842 0)
(1.0005 0.00169324 0)
(1.00014 0.00191147 0)
(1.00005 0.00203089 0)
(1.00025 0.00203879 0)
(0.999991 5.80457e-05 0)
(1.00001 0.000113775 0)
(0.999973 0.000213532 0)
(0.999955 0.00030992 0)
(1.00004 0.000317712 0)
(1.00005 0.000398409 0)
(0.999926 0.000613112 0)
(0.999905 0.000791902 0)
(1.0001 0.00081703 0)
(1.00026 0.00086606 0)
(1.00016 0.00106851 0)
(0.99996 0.00133698 0)
(0.99996 0.00152651 0)
(1.00029 0.00152233 0)
(1.0007 0.00145072 0)
(1.00089 0.00143815 0)
(1.00074 0.00154286 0)
(1.0004 0.0017389 0)
(1.00018 0.00190398 0)
(1.00024 0.00196984 0)
(0.999992 5.80432e-05 0)
(1.00001 0.000128362 0)
(0.999998 0.000203565 0)
(0.999967 0.000315185 0)
(1.00004 0.00035462 0)
(1.0001 0.000400235 0)
(1.00002 0.00056888 0)
(0.999954 0.000775901 0)
(1.00009 0.00086004 0)
(1.00029 0.000878938 0)
(1.00031 0.000989447 0)
(1.00015 0.00120592 0)
(1.00006 0.00141716 0)
(1.00025 0.00149968 0)
(1.00061 0.00145811 0)
(1.00088 0.0014114 0)
(1.00089 0.00144505 0)
(1.00066 0.00156866 0)
(1.00039 0.00173731 0)
(1.00033 0.00184519 0)
(0.999994 5.54897e-05 0)
(1.00001 0.000141852 0)
(1.00002 0.000199947 0)
(0.999992 0.000305388 0)
(1.00004 0.000376595 0)
(1.00012 0.000416371 0)
(1.0001 0.000533546 0)
(1.00003 0.000726338 0)
(1.00011 0.000859 0)
(1.00029 0.000893681 0)
(1.00039 0.000948447 0)
(1.00032 0.00109108 0)
(1.00021 0.00128287 0)
(1.00028 0.00140854 0)
(1.00053 0.00142931 0)
(1.00082 0.00138776 0)
(1.00094 0.00138041 0)
(1.00084 0.00144067 0)
(1.00062 0.00156514 0)
(1.00049 0.0016851 0)
(0.999996 5.2196e-05 0)
(1.00001 0.00014946 0)
(1.00003 0.000201369 0)
(1.00002 0.000289906 0)
(1.00005 0.000378402 0)
(1.00013 0.000430037 0)
(1.00016 0.000512245 0)
(1.00012 0.000668134 0)
(1.00015 0.000817324 0)
(1.00029 0.000882988 0)
(1.00043 0.000922804 0)
(1.00044 0.00100528 0)
(1.00036 0.00115066 0)
(1.00036 0.0012829 0)
(1.00052 0.00134657 0)
(1.00075 0.0013418 0)
(1.00092 0.0013243 0)
(1.00093 0.00134598 0)
(1.00081 0.00141892 0)
(1.00068 0.00151966 0)
(0.999997 4.9207e-05 0)
(1.00001 0.000149845 0)
(1.00004 0.000202984 0)
(1.00005 0.000273856 0)
(1.00007 0.000363474 0)
(1.00015 0.000429195 0)
(1.0002 0.000496745 0)
(1.0002 0.000613216 0)
(1.00021 0.000751384 0)
(1.00031 0.000840171 0)
(1.00044 0.000885773 0)
(1.00051 0.000939406 0)
(1.00049 0.00103484 0)
(1.00047 0.0011487 0)
(1.00056 0.00122815 0)
(1.00072 0.00125647 0)
(1.00089 0.00125372 0)
(1.00096 0.00125998 0)
(1.00093 0.00129807 0)
(1.00085 0.00136711 0)
(0.999999 4.64194e-05 0)
(1.00001 0.000144114 0)
(1.00005 0.0002 0)
(1.00007 0.000257401 0)
(1.0001 0.000338077 0)
(1.00016 0.000411083 0)
(1.00023 0.000475626 0)
(1.00026 0.000563526 0)
(1.00028 0.000677152 0)
(1.00035 0.000770958 0)
(1.00046 0.000827111 0)
(1.00054 0.000871681 0)
(1.00057 0.00093481 0)
(1.00058 0.00101905 0)
(1.00062 0.0010951 0)
(1.00073 0.00114017 0)
(1.00086 0.00115588 0)
(1.00096 0.00116443 0)
(1.00099 0.00118507 0)
(1.00096 0.00122796 0)
(0.999999 4.3346e-05 0)
(1.00002 0.000133486 0)
(1.00005 0.000189957 0)
(1.00009 0.00023833 0)
(1.00012 0.000306477 0)
(1.00018 0.000377871 0)
(1.00025 0.000441413 0)
(1.0003 0.00051257 0)
(1.00033 0.000601428 0)
(1.00039 0.000686023 0)
(1.00048 0.000746885 0)
(1.00057 0.000790249 0)
(1.00063 0.000836945 0)
(1.00066 0.000896638 0)
(1.00069 0.000958662 0)
(1.00077 0.00100659 0)
(1.00087 0.00103335 0)
(1.00096 0.00104901 0)
(1.00102 0.00106501 0)
(1.00104 0.00109205 0)
(1 3.93958e-05 0)
(1.00002 0.000118784 0)
(1.00006 0.000172159 0)
(1.0001 0.000213848 0)
(1.00015 0.000268915 0)
(1.0002 0.00033256 0)
(1.00027 0.000392323 0)
(1.00033 0.000452166 0)
(1.00038 0.000521446 0)
(1.00043 0.000592042 0)
(1.00051 0.000649471 0)
(1.00059 0.00069195 0)
(1.00066 0.000729662 0)
(1.00071 0.000772973 0)
(1.00075 0.000819675 0)
(1.00081 0.000861963 0)
(1.00089 0.000891957 0)
(1.00097 0.000911918 0)
(1.00104 0.000928012 0)
(1.00108 0.000947304 0)
(1 3.43598e-05 0)
(1.00002 0.000100669 0)
(1.00006 0.000146944 0)
(1.00011 0.000182063 0)
(1.00016 0.000224663 0)
(1.00022 0.000276329 0)
(1.00028 0.000327397 0)
(1.00035 0.000375877 0)
(1.00041 0.000427566 0)
(1.00047 0.000481672 0)
(1.00054 0.000529227 0)
(1.00062 0.000566606 0)
(1.00069 0.000597141 0)
(1.00075 0.000628129 0)
(1.0008 0.000661247 0)
(1.00086 0.000693637 0)
(1.00092 0.000720048 0)
(1.00099 0.00073922 0)
(1.00106 0.000753623 0)
(1.00111 0.000767511 0)
(0.999999 2.91186e-05 0)
(1.00002 8.45785e-05 0)
(1.00007 0.000124446 0)
(1.00012 0.00015575 0)
(1.00017 0.000191578 0)
(1.00023 0.000235555 0)
(1.0003 0.000281612 0)
(1.00037 0.000325432 0)
(1.00043 0.000368625 0)
(1.0005 0.000412343 0)
(1.00056 0.00045319 0)
(1.00064 0.000488 0)
(1.00071 0.000516837 0)
(1.00077 0.00054333 0)
(1.00083 0.000569878 0)
(1.00089 0.000596158 0)
(1.00095 0.000619817 0)
(1.00101 0.0006392 0)
(1.00106 0.000654683 0)
(1.00112 0.000668029 0)
(1 1.33186e-05 0)
(1.00003 3.91883e-05 0)
(1.00007 5.81496e-05 0)
(1.00013 7.36542e-05 0)
(1.00019 9.12548e-05 0)
(1.00025 0.000112866 0)
(1.00032 0.000136283 0)
(1.00039 0.00015907 0)
(1.00046 0.000180881 0)
(1.00053 0.00020233 0)
(1.0006 0.000222701 0)
(1.00067 0.000240841 0)
(1.00074 0.000256369 0)
(1.0008 0.000270253 0)
(1.00087 0.00028353 0)
(1.00093 0.000296514 0)
(1.00098 0.00030872 0)
(1.00104 0.000319503 0)
(1.0011 0.000328697 0)
(1.00115 0.000336634 0)
(0.982503 0.00183869 0)
(0.958356 0.00313652 0)
(0.934428 0.00344208 0)
(0.910467 0.0033856 0)
(0.885923 0.00332046 0)
(0.861016 0.00331437 0)
(0.835711 0.00333734 0)
(0.809989 0.0033859 0)
(0.783555 0.00343391 0)
(0.756675 0.00345293 0)
(0.729108 0.00353315 0)
(0.700197 0.00359266 0)
(0.670472 0.00364292 0)
(0.639658 0.00367027 0)
(0.608267 0.0035096 0)
(0.577327 0.00333534 0)
(0.546186 0.00313667 0)
(0.516143 0.00273896 0)
(0.487925 0.00252334 0)
(0.459527 0.00272293 0)
(0.429688 0.0028872 0)
(0.398485 0.00270445 0)
(0.367135 0.00237721 0)
(0.337254 0.00202906 0)
(0.310149 0.00158152 0)
(0.286622 0.0010243 0)
(0.267195 0.000421282 0)
(0.252653 -7.41883e-05 0)
(0.242777 -0.000363593 0)
(0.235919 -0.000474531 0)
(0.230935 -0.00050087 0)
(0.22756 -0.000524652 0)
(0.225545 -0.000520326 0)
(0.224318 -0.000473832 0)
(0.223359 -0.000418626 0)
(0.222559 -0.000372179 0)
(0.221915 -0.000303806 0)
(0.221181 -0.000233853 0)
(0.220137 -0.00017083 0)
(0.218818 -0.000113537 0)
(0.217297 -8.08821e-05 0)
(0.215619 -5.68962e-05 0)
(0.213886 -3.87313e-05 0)
(0.21229 -5.30181e-05 0)
(0.21103 -7.07782e-05 0)
(0.210116 -6.2791e-05 0)
(0.209439 -4.42525e-05 0)
(0.208943 -3.46013e-05 0)
(0.208504 -1.90633e-05 0)
(0.207942 -2.38524e-06 0)
(0.207367 -2.79493e-06 0)
(0.207069 -1.14856e-05 0)
(0.207048 -8.38053e-06 0)
(0.207036 3.85308e-06 0)
(0.206958 7.37617e-06 0)
(0.206932 5.36128e-06 0)
(0.207026 6.33002e-06 0)
(0.207164 1.01202e-05 0)
(0.207311 1.07499e-05 0)
(0.20745 8.66508e-06 0)
(0.207604 5.62771e-06 0)
(0.207727 3.27333e-06 0)
(0.207842 7.15551e-07 0)
(0.207912 -9.33676e-07 0)
(0.207988 -2.2082e-06 0)
(0.208024 -2.72589e-06 0)
(0.208079 -3.03811e-06 0)
(0.208092 -2.74771e-06 0)
(0.208136 -2.25623e-06 0)
(0.208135 -1.71142e-06 0)
(0.20817 -1.05639e-06 0)
(0.208159 -8.45332e-07 0)
(0.208186 -3.1783e-07 0)
(0.208172 -4.70396e-07 0)
(0.208192 6.37534e-08 0)
(0.208181 -3.57168e-07 0)
(0.208193 1.88492e-07 0)
(0.208187 -2.71823e-07 0)
(0.208193 1.39445e-07 0)
(0.208192 -1.1852e-07 0)
(0.208194 -2.31548e-08 0)
(0.208193 7.02099e-08 0)
(0.208198 -1.50513e-07 0)
(0.208191 1.67181e-07 0)
(0.208202 -1.69154e-07 0)
(0.208188 1.25898e-07 0)
(0.208206 -4.68117e-08 0)
(0.208184 -1.11121e-08 0)
(0.20821 8.41976e-08 0)
(0.208178 -2.97516e-08 0)
(0.208212 2.8696e-08 0)
(0.208167 2.12195e-07 0)
(0.208213 -1.62235e-07 0)
(0.208147 4.48077e-07 0)
(0.208205 1.08933e-07 0)
(0.208112 2.22554e-07 0)
(0.20818 9.61422e-07 0)
(0.208022 4.77356e-08 0)
(0.208164 2.12562e-06 0)
(0.207712 5.52713e-06 0)
(0.99539 0.00380447 0)
(0.994358 0.00593156 0)
(0.993391 0.00656432 0)
(0.99231 0.00644131 0)
(0.990828 0.00627519 0)
(0.988573 0.00621527 0)
(0.985952 0.00624396 0)
(0.982587 0.00633004 0)
(0.978468 0.00641667 0)
(0.973767 0.00646208 0)
(0.968016 0.00656282 0)
(0.961347 0.0066874 0)
(0.953284 0.00680992 0)
(0.944284 0.00694603 0)
(0.934165 0.0069634 0)
(0.923168 0.00689054 0)
(0.911487 0.00677207 0)
(0.898895 0.00652553 0)
(0.886433 0.00625305 0)
(0.87319 0.00622154 0)
(0.858609 0.0064456 0)
(0.843098 0.00667982 0)
(0.826493 0.00666356 0)
(0.809543 0.00631065 0)
(0.792539 0.00571762 0)
(0.776145 0.00504831 0)
(0.760806 0.00429503 0)
(0.746363 0.00338449 0)
(0.733668 0.00255053 0)
(0.721731 0.00201498 0)
(0.70992 0.00163238 0)
(0.699569 0.00123381 0)
(0.690227 0.000917211 0)
(0.681228 0.000793934 0)
(0.672947 0.000715484 0)
(0.664951 0.000573128 0)
(0.657232 0.000490114 0)
(0.650161 0.000488231 0)
(0.643175 0.000479641 0)
(0.636312 0.000470554 0)
(0.629937 0.000465193 0)
(0.623565 0.000449644 0)
(0.617281 0.000426884 0)
(0.611706 0.00036522 0)
(0.606595 0.000282645 0)
(0.601725 0.000221731 0)
(0.597584 0.000166153 0)
(0.594187 0.000112046 0)
(0.591012 0.000109064 0)
(0.587988 0.000127291 0)
(0.585439 9.0526e-05 0)
(0.583444 2.27451e-05 0)
(0.581878 -3.09304e-06 0)
(0.580609 9.56554e-06 0)
(0.579607 6.57184e-06 0)
(0.578854 -1.5924e-05 0)
(0.578409 -3.26114e-05 0)
(0.578226 -3.55005e-05 0)
(0.578308 -3.61485e-05 0)
(0.578531 -3.50413e-05 0)
(0.578902 -3.07007e-05 0)
(0.579261 -2.26377e-05 0)
(0.579661 -1.58613e-05 0)
(0.579947 -9.53305e-06 0)
(0.580268 -5.84627e-06 0)
(0.580451 -2.45814e-06 0)
(0.580703 -1.28065e-06 0)
(0.580805 -1.18227e-07 0)
(0.581002 -7.07805e-08 0)
(0.581034 -3.59784e-08 0)
(0.581179 1.25719e-07 0)
(0.581161 -4.08797e-07 0)
(0.581262 3.33777e-07 0)
(0.581224 -6.99079e-07 0)
(0.58129 6.06258e-07 0)
(0.581258 -8.10029e-07 0)
(0.581293 6.11837e-07 0)
(0.58128 -6.65231e-07 0)
(0.581291 3.42088e-07 0)
(0.581291 -3.04567e-07 0)
(0.581294 -7.43349e-08 0)
(0.58129 1.23725e-07 0)
(0.581308 -3.31445e-07 0)
(0.581277 2.47212e-07 0)
(0.581328 -1.93204e-07 0)
(0.58126 -3.39156e-08 0)
(0.581343 2.46219e-07 0)
(0.58125 -3.78413e-07 0)
(0.581348 4.83067e-07 0)
(0.581244 -2.29159e-07 0)
(0.581353 1.93665e-07 0)
(0.581224 4.42628e-07 0)
(0.581372 -4.11197e-08 0)
(0.581177 8.29062e-07 0)
(0.581388 9.72412e-07 0)
(0.581123 2.05548e-07 0)
(0.581361 3.46736e-06 0)
(0.581032 6.05677e-07 0)
(0.581316 3.10937e-06 0)
(0.580793 1.58766e-05 0)
(0.996423 0.0030706 0)
(0.995708 0.00444367 0)
(0.995571 0.00518839 0)
(0.995864 0.0052063 0)
(0.996333 0.00509322 0)
(0.996586 0.00510328 0)
(0.996931 0.00520607 0)
(0.997155 0.00541831 0)
(0.997212 0.00564526 0)
(0.997312 0.00588751 0)
(0.997082 0.00620003 0)
(0.996668 0.00653494 0)
(0.995716 0.00689405 0)
(0.99457 0.00723132 0)
(0.993112 0.00746885 0)
(0.991188 0.00750848 0)
(0.988924 0.00749696 0)
(0.985997 0.00734977 0)
(0.982934 0.00702778 0)
(0.97937 0.00702867 0)
(0.975415 0.00741295 0)
(0.971639 0.00776404 0)
(0.967508 0.00773147 0)
(0.963052 0.00731871 0)
(0.95813 0.00672742 0)
(0.952996 0.00603732 0)
(0.948178 0.00527666 0)
(0.943283 0.00434693 0)
(0.938478 0.00343198 0)
(0.93365 0.00294878 0)
(0.928577 0.00266202 0)
(0.923714 0.00220639 0)
(0.918733 0.00183073 0)
(0.913526 0.00171719 0)
(0.908662 0.00162576 0)
(0.903872 0.00148643 0)
(0.89901 0.00139504 0)
(0.894532 0.00136753 0)
(0.890155 0.00136972 0)
(0.885646 0.00134767 0)
(0.881224 0.00130284 0)
(0.876673 0.00128423 0)
(0.872026 0.00123731 0)
(0.867732 0.00109633 0)
(0.863668 0.000951594 0)
(0.859639 0.000858663 0)
(0.85596 0.000733114 0)
(0.852651 0.000599501 0)
(0.849423 0.000564942 0)
(0.846337 0.000561986 0)
(0.843599 0.000458592 0)
(0.841136 0.000312981 0)
(0.838911 0.000242547 0)
(0.836958 0.000224082 0)
(0.835296 0.00018093 0)
(0.833831 0.000115921 0)
(0.832632 6.38821e-05 0)
(0.831669 2.7968e-05 0)
(0.831005 -4.7552e-06 0)
(0.830505 -3.04869e-05 0)
(0.830263 -4.59568e-05 0)
(0.830095 -4.96266e-05 0)
(0.830133 -4.86591e-05 0)
(0.830133 -4.43976e-05 0)
(0.830334 -4.12705e-05 0)
(0.830448 -3.60666e-05 0)
(0.830799 -3.16477e-05 0)
(0.831001 -2.58224e-05 0)
(0.831432 -2.06701e-05 0)
(0.831622 -1.525e-05 0)
(0.832005 -1.05149e-05 0)
(0.832094 -7.3772e-06 0)
(0.83236 -4.01434e-06 0)
(0.832356 -3.43534e-06 0)
(0.832513 -1.00259e-06 0)
(0.832474 -1.97941e-06 0)
(0.832557 8.37105e-08 0)
(0.832524 -1.41855e-06 0)
(0.832564 3.42053e-07 0)
(0.832542 -9.13118e-07 0)
(0.832572 2.30681e-07 0)
(0.832536 -4.60955e-07 0)
(0.832591 5.26178e-08 0)
(0.832517 -2.32424e-07 0)
(0.832614 1.04703e-07 0)
(0.8325 -3.04598e-07 0)
(0.832625 3.99145e-07 0)
(0.832496 -4.96588e-07 0)
(0.832623 6.62896e-07 0)
(0.832496 -4.11746e-07 0)
(0.832625 6.29116e-07 0)
(0.832476 1.92881e-07 0)
(0.832649 5.36382e-07 0)
(0.832431 9.99632e-07 0)
(0.832666 1.57554e-06 0)
(0.832396 8.76107e-07 0)
(0.832626 4.86191e-06 0)
(0.832361 2.27503e-06 0)
(0.832559 3.66639e-06 0)
(0.832192 2.31929e-05 0)
(0.997268 0.00297037 0)
(0.996534 0.00409071 0)
(0.996191 0.00506106 0)
(0.996394 0.00539353 0)
(0.996772 0.0053757 0)
(0.99712 0.00542492 0)
(0.997528 0.00555201 0)
(0.997905 0.00574701 0)
(0.998274 0.00592332 0)
(0.998717 0.00614297 0)
(0.999157 0.00644975 0)
(0.999491 0.00676878 0)
(0.999653 0.0071028 0)
(0.999893 0.0074017 0)
(1.00009 0.00759367 0)
(1.00027 0.00759494 0)
(1.00025 0.00757866 0)
(0.999908 0.00744678 0)
(0.999583 0.00718311 0)
(0.99891 0.00731076 0)
(0.998243 0.0077896 0)
(0.99812 0.00809621 0)
(0.998087 0.00800172 0)
(0.997978 0.00761896 0)
(0.997492 0.00708332 0)
(0.996734 0.00643726 0)
(0.996184 0.00570121 0)
(0.995493 0.00479037 0)
(0.99447 0.00387687 0)
(0.993261 0.00336761 0)
(0.992066 0.00305362 0)
(0.990873 0.00258905 0)
(0.989147 0.0022357 0)
(0.987169 0.00215801 0)
(0.985529 0.00208807 0)
(0.983764 0.00192168 0)
(0.981808 0.00179193 0)
(0.980166 0.00173332 0)
(0.978637 0.00170745 0)
(0.977072 0.00168011 0)
(0.975588 0.00164484 0)
(0.973949 0.0016349 0)
(0.97219 0.00158537 0)
(0.970525 0.00141767 0)
(0.968783 0.00124304 0)
(0.967012 0.00113759 0)
(0.965483 0.00099523 0)
(0.964006 0.000837015 0)
(0.962442 0.000797377 0)
(0.961035 0.000792505 0)
(0.959814 0.000666044 0)
(0.958524 0.000491969 0)
(0.957246 0.000406475 0)
(0.956155 0.000378774 0)
(0.955241 0.000320101 0)
(0.954337 0.00023554 0)
(0.953535 0.000165852 0)
(0.952828 0.000114217 0)
(0.952298 6.64237e-05 0)
(0.951799 2.61242e-05 0)
(0.951474 -2.45531e-06 0)
(0.951152 -1.608e-05 0)
(0.951029 -2.37494e-05 0)
(0.950838 -2.759e-05 0)
(0.950871 -3.22934e-05 0)
(0.95078 -3.65132e-05 0)
(0.950967 -4.1857e-05 0)
(0.950979 -4.43682e-05 0)
(0.951307 -4.40768e-05 0)
(0.951385 -3.96739e-05 0)
(0.951769 -3.25098e-05 0)
(0.951828 -2.50022e-05 0)
(0.952161 -1.66772e-05 0)
(0.952152 -1.17944e-05 0)
(0.952387 -5.85696e-06 0)
(0.95233 -4.86699e-06 0)
(0.952475 -1.04731e-06 0)
(0.952409 -2.29058e-06 0)
(0.952495 4.77339e-07 0)
(0.952438 -1.36405e-06 0)
(0.9525 5.07132e-07 0)
(0.952437 -7.78486e-07 0)
(0.952512 2.5478e-07 0)
(0.952422 -3.50156e-07 0)
(0.952527 1.44984e-07 0)
(0.952407 -2.64852e-07 0)
(0.952532 3.90399e-07 0)
(0.952406 -4.73846e-07 0)
(0.952525 7.76562e-07 0)
(0.95241 -4.92123e-07 0)
(0.952521 8.59223e-07 0)
(0.952398 2.14376e-07 0)
(0.952536 6.57289e-07 0)
(0.952363 1.41536e-06 0)
(0.952551 1.65881e-06 0)
(0.95234 1.65769e-06 0)
(0.952511 5.29862e-06 0)
(0.95234 3.72012e-06 0)
(0.952445 3.75017e-06 0)
(0.952207 2.59791e-05 0)
(0.997753 0.00305418 0)
(0.997051 0.00394475 0)
(0.996562 0.00485438 0)
(0.99663 0.00533587 0)
(0.996892 0.00535669 0)
(0.997231 0.00538092 0)
(0.997622 0.00550758 0)
(0.997922 0.00570617 0)
(0.998286 0.00582869 0)