/*--------------------------------*- C++ -*----------------------------------*\
  =========                 |
  \\      /  F ield         | OpenFOAM: The Open Source CFD Toolbox
   \\    /   O peration     | Website:  https://openfoam.org
    \\  /    A nd           | Version:  10
     \\/     M anipulation  |
\*---------------------------------------------------------------------------*/
FoamFile
{
    format      ascii;
    class       surfaceScalarField;
    location    "0.7";
    object      phi;
}
// * * * * * * * * * * * * * * * * * * * * * * * * * * * * * * * * * * * * * //

dimensions      [0 3 -1 0 0 0 0];

internalField   nonuniform List<scalar> 
9440
(
3.8807e-06
-8.9678e-09
3.87726e-06
-7.26379e-09
3.88007e-06
1.85994e-08
3.8767e-06
-2.72318e-08
3.87804e-06
2.01865e-09
3.87563e-06
-2.28738e-08
3.87687e-06
9.03193e-09
3.87694e-06
-1.47893e-08
3.87771e-06
4.2601e-09
3.87875e-06
-2.57151e-08
3.8796e-06
-6.68236e-10
3.88084e-06
-2.58582e-08
3.88183e-06
-1.92939e-09
3.88268e-06
-2.32586e-08
3.88351e-06
-3.18368e-09
3.88376e-06
-1.68754e-08
3.88291e-06
-3.49148e-10
3.87822e-06
-5.15411e-09
3.86392e-06
2.35039e-08
3.6793e-08
3.84241e-06
4.1827e-06
-5.80487e-09
4.18637e-06
-1.09387e-08
4.18413e-06
2.08364e-08
4.18588e-06
-2.89758e-08
4.18364e-06
4.25642e-09
4.18394e-06
-2.31683e-08
4.18377e-06
9.19433e-09
4.184e-06
-1.50159e-08
4.18565e-06
2.61104e-09
4.1837e-06
-2.37619e-08
4.18636e-06
-3.3352e-09
4.18366e-06
-2.31591e-08
4.18694e-06
-5.20965e-09
4.18553e-06
-2.18489e-08
4.18817e-06
-5.82033e-09
4.18524e-06
-1.39454e-08
4.18381e-06
1.07753e-09
4.17189e-06
6.77072e-09
4.16537e-06
3.00206e-08
4.31891e-08
4.15898e-06
4.51723e-06
-2.97117e-09
4.51964e-06
-1.33514e-08
4.51875e-06
2.17322e-08
4.51872e-06
-2.89534e-08
4.51896e-06
4.0148e-09
4.51658e-06
-2.07876e-08
4.51988e-06
5.89473e-09
4.51663e-06
-1.17582e-08
4.52211e-06
-2.8768e-09
4.51672e-06
-1.83719e-08
4.52273e-06
-9.34316e-09
4.51681e-06
-1.72396e-08
4.52335e-06
-1.17453e-08
4.51808e-06
-1.65777e-08
4.52319e-06
-1.09302e-08
4.51649e-06
-7.24407e-09
4.51562e-06
1.94525e-09
4.50413e-06
1.82596e-08
4.50007e-06
3.40768e-08
4.82443e-08
4.49502e-06
4.88001e-06
-2.03389e-09
4.87991e-06
-1.32512e-08
4.88174e-06
1.99019e-08
4.87906e-06
-2.62729e-08
4.88198e-06
1.09933e-09
4.87739e-06
-1.62034e-08
4.88276e-06
5.28229e-10
4.87805e-06
-7.04818e-09
4.88399e-06
-8.82135e-09
4.87956e-06
-1.39363e-08
4.88418e-06
-1.39622e-08
4.88248e-06
-1.55445e-08
4.88566e-06
-1.49197e-08
4.88444e-06
-1.53613e-08
4.88448e-06
-1.09671e-08
4.87878e-06
-1.54438e-09
4.86997e-06
1.07557e-08
4.86341e-06
2.48181e-08
4.85984e-06
3.76461e-08
5.08257e-08
4.85726e-06
5.27039e-06
-1.77227e-09
5.26909e-06
-1.1959e-08
5.27259e-06
1.64023e-08
5.26833e-06
-2.20068e-08
5.27266e-06
-3.23642e-09
5.26726e-06
-1.08047e-08
5.27298e-06
-5.18587e-09
5.2689e-06
-2.97545e-09
5.27331e-06
-1.32226e-08
5.27251e-06
-1.31449e-08
5.27416e-06
-1.56095e-08
5.27547e-06
-1.68505e-08
5.27635e-06
-1.58054e-08
5.27468e-06
-1.36914e-08
5.27109e-06
-7.37771e-09
5.26291e-06
6.64297e-09
5.25628e-06
1.73822e-08
5.2517e-06
2.93998e-08
5.24866e-06
4.06871e-08
5.23854e-08
5.2471e-06
5.69144e-06
-1.7493e-09
5.68917e-06
-9.6922e-09
5.69396e-06
1.16111e-08
5.68895e-06
-1.69926e-08
5.69335e-06
-7.63639e-09
5.689e-06
-6.4559e-09
5.69247e-06
-8.65689e-09
5.69252e-06
-3.03113e-09
5.69287e-06
-1.35727e-08
5.69565e-06
-1.5919e-08
5.69584e-06
-1.57961e-08
5.69686e-06
-1.78755e-08
5.69656e-06
-1.55026e-08
5.69293e-06
-1.00662e-08
5.68601e-06
-4.52684e-10
5.67928e-06
1.33728e-08
5.67448e-06
2.21823e-08
5.67099e-06
3.28913e-08
5.6685e-06
4.3176e-08
5.348e-08
5.6674e-06
6.14596e-06
-1.83989e-09
6.14295e-06
-6.68563e-09
6.14845e-06
6.11058e-09
6.14367e-06
-1.22047e-08
6.14685e-06
-1.08178e-08
6.14496e-06
-4.56571e-09
6.14523e-06
-8.9247e-09
6.14887e-06
-6.67078e-09
6.14793e-06
-1.26329e-08
6.14985e-06
-1.78392e-08
6.15158e-06
-1.75332e-08
6.15075e-06
-1.70406e-08
6.14847e-06
-1.32273e-08
6.14239e-06
-3.98095e-09
6.13506e-06
6.87835e-09
6.13068e-06
1.77485e-08
6.12671e-06
2.61511e-08
6.12389e-06
3.57155e-08
6.12184e-06
4.52249e-08
5.42662e-08
6.12105e-06
6.63671e-06
-1.98502e-09
6.63336e-06
-3.33464e-09
6.63849e-06
9.7883e-10
6.63544e-06
-9.15256e-09
6.63608e-06
-1.14605e-08
6.63775e-06
-6.23551e-09
6.63582e-06
-6.99532e-09
6.63917e-06
-1.00177e-08
6.64096e-06
-1.4424e-08
6.64077e-06
-1.76573e-08
6.64186e-06
-1.86215e-08
6.63986e-06
-1.50351e-08
6.63415e-06
-7.52407e-09
6.62766e-06
2.51345e-09
6.62263e-06
1.19101e-08
6.6189e-06
2.14717e-08
6.61559e-06
2.9468e-08
6.6131e-06
3.81994e-08
6.61147e-06
4.68623e-08
5.48765e-08
6.61086e-06
7.16653e-06
-2.0856e-09
7.16344e-06
-2.39962e-10
7.16676e-06
-2.34711e-09
7.16714e-06
-9.53449e-09
7.16504e-06
-9.36146e-09
7.16781e-06
-9.00145e-09
7.16798e-06
-7.16793e-09
7.16821e-06
-1.02397e-08
7.17113e-06
-1.73488e-08
7.17147e-06
-1.79964e-08
7.16954e-06
-1.66942e-08
7.16624e-06
-1.17288e-08
7.16016e-06
-1.44886e-09
7.15408e-06
8.59473e-09
7.1499e-06
1.60887e-08
7.14667e-06
2.47042e-08
7.14375e-06
3.23858e-08
7.14155e-06
4.03962e-08
7.14022e-06
4.81935e-08
5.53379e-08
7.13976e-06
7.73857e-06
-2.05525e-09
7.73638e-06
1.95298e-09
7.73676e-06
-2.72857e-09
7.74063e-06
-1.33985e-08
7.7379e-06
-6.63073e-09
7.73918e-06
-1.0289e-08
7.74194e-06
-9.92698e-09
7.74105e-06
-9.34838e-09
7.74216e-06
-1.84618e-08
7.74283e-06
-1.86598e-08
7.7384e-06
-1.22721e-08
7.73271e-06
-6.03453e-09
7.72777e-06
3.49655e-09
7.72368e-06
1.26834e-08
7.71995e-06
1.98155e-08
7.71693e-06
2.77265e-08
7.71431e-06
3.50003e-08
7.7124e-06
4.23096e-08
7.71128e-06
4.93126e-08
5.56312e-08
7.71099e-06
8.35627e-06
-1.86936e-09
8.35542e-06
2.80612e-09
8.35351e-06
-8.19378e-10
8.35806e-06
-1.79481e-08
8.35799e-06
-6.56167e-09
8.35666e-06
-8.95903e-09
8.35955e-06
-1.28102e-08
8.36077e-06
-1.057e-08
8.35842e-06
-1.61106e-08
8.35735e-06
-1.75915e-08
8.35365e-06
-8.57737e-09
8.34723e-06
3.844e-10
8.34238e-06
8.35137e-09
8.33905e-06
1.60126e-08
8.33582e-06
2.30417e-08
8.33301e-06
3.05367e-08
8.33069e-06
3.73212e-08
8.329e-06
4.40062e-08
8.32804e-06
5.02654e-08
5.57784e-08
8.3279e-06
9.02338e-06
-1.60589e-09
9.02404e-06
2.14522e-09
9.02114e-06
2.08926e-09
9.02324e-06
-2.00564e-08
9.0271e-06
-1.04163e-08
9.02491e-06
-6.77422e-09
9.02569e-06
-1.35816e-08
9.02777e-06
-1.26524e-08
9.02487e-06
-1.32134e-08
9.01997e-06
-1.26943e-08
9.01612e-06
-4.72292e-09
9.01203e-06
4.47627e-09
9.00756e-06
1.28173e-08
9.004e-06
1.95705e-08
9.00108e-06
2.59645e-08
8.99852e-06
3.30958e-08
8.9965e-06
3.9346e-08
8.99499e-06
4.55129e-08
8.99421e-06
5.10479e-08
5.57991e-08
8.99419e-06
9.74386e-06
-1.35982e-09
9.74558e-06
4.24019e-10
9.74316e-06
4.50392e-09
9.74137e-06
-1.82627e-08
9.74716e-06
-1.62074e-08
9.74775e-06
-7.36637e-09
9.74567e-06
-1.15012e-08
9.74602e-06
-1.30032e-08
9.74429e-06
-1.14848e-08
9.73813e-06
-6.5308e-09
9.73259e-06
8.2303e-10
9.72921e-06
7.84762e-09
9.7261e-06
1.59299e-08
9.72267e-06
2.30006e-08
9.71977e-06
2.88659e-08
9.71743e-06
3.54338e-08
9.71566e-06
4.112e-08
9.71437e-06
4.68052e-08
9.71374e-06
5.16683e-08
5.56953e-08
9.71385e-06
1.0522e-05
-1.24442e-09
1.05234e-05
-1.02147e-09
1.05233e-05
4.65224e-09
1.05188e-05
-1.37947e-08
1.05229e-05
-2.02782e-08
1.05267e-05
-1.12077e-08
1.05247e-05
-9.4773e-09
1.05211e-05
-9.428e-09
1.05184e-05
-8.81727e-09
1.05145e-05
-2.58213e-09
1.05088e-05
6.49917e-09
1.05044e-05
1.22897e-08
1.05017e-05
1.8584e-08
1.0499e-05
2.5739e-08
1.04962e-05
3.16576e-08
1.0494e-05
3.75941e-08
1.04924e-05
4.27077e-08
1.04914e-05
4.78628e-08
1.04909e-05
5.21238e-08
5.54665e-08
1.04912e-05
1.13622e-05
-1.32e-09
1.13626e-05
-1.36704e-09
1.13651e-05
2.12523e-09
1.13605e-05
-9.16419e-09
1.13602e-05
-1.99984e-08
1.1365e-05
-1.59885e-08
1.13657e-05
-1.02283e-08
1.13602e-05
-3.84507e-09
1.13545e-05
-3.15031e-09
1.13511e-05
8.12424e-10
1.13474e-05
1.01563e-08
1.13429e-05
1.68479e-08
1.13396e-05
2.18435e-08
1.13373e-05
2.80404e-08
1.13349e-05
3.41114e-08
1.13329e-05
3.95416e-08
1.13315e-05
4.41495e-08
1.13306e-05
4.86905e-08
1.13304e-05
5.23936e-08
5.51179e-08
1.13307e-05
1.22695e-05
-1.48987e-09
1.22688e-05
-6.45177e-10
1.22722e-05
-1.3306e-09
1.22704e-05
-7.30475e-09
1.22663e-05
-1.59053e-08
1.22681e-05
-1.7771e-08
1.22712e-05
-1.33292e-08
1.22683e-05
-9.47024e-10
1.22602e-05
4.90028e-09
1.22548e-05
6.22339e-09
1.22521e-05
1.2825e-08
1.22488e-05
2.02329e-08
1.22453e-05
2.53441e-08
1.22428e-05
3.04956e-08
1.22407e-05
3.61737e-08
1.2239e-05
4.12719e-08
1.22378e-05
4.54038e-08
1.22371e-05
4.93149e-08
1.22371e-05
5.24579e-08
5.46393e-08
1.22375e-05
1.3249e-05
-1.56003e-09
1.32484e-05
-5.26631e-11
1.32503e-05
-3.22496e-09
1.32517e-05
-8.68231e-09
1.32469e-05
-1.11253e-08
1.32437e-05
-1.46113e-08
1.32448e-05
-1.43499e-08
1.32459e-05
-2.10934e-09
1.32402e-05
1.05742e-08
1.3233e-05
1.34784e-08
1.32291e-05
1.67185e-08
1.32265e-05
2.27912e-08
1.32237e-05
2.82284e-08
1.3221e-05
3.31237e-08
1.32192e-05
3.79862e-08
1.32177e-05
4.27953e-08
1.32166e-05
4.64492e-08
1.32162e-05
4.97493e-08
1.32163e-05
5.23345e-08
5.40213e-08
1.3217e-05
1.43066e-05
-1.40628e-09
1.43072e-05
-6.47694e-10
1.43066e-05
-2.68792e-09
1.43088e-05
-1.08805e-08
1.43065e-05
-8.76439e-09
1.43003e-05
-8.38553e-09
1.42968e-05
-1.08579e-08
1.42976e-05
-2.9585e-09
1.42967e-05
1.14885e-08
1.42909e-05
1.92723e-08
1.42854e-05
2.22107e-08
1.42824e-05
2.57797e-08
1.428e-05
3.06183e-08
1.42778e-05
3.53868e-08
1.42761e-05
3.9674e-08
1.42748e-05
4.4066e-08
1.42739e-05
4.73185e-08
1.42737e-05
4.99696e-08
1.4274e-05
5.20403e-08
5.325e-08
1.42748e-05
1.54488e-05
-1.18395e-09
1.54501e-05
-1.93078e-09
1.54489e-05
-1.48308e-09
1.54488e-05
-1.08455e-08
1.54491e-05
-9.08486e-09
1.54436e-05
-2.85455e-09
1.54362e-05
-3.42481e-09
1.54334e-05
-2.0825e-10
1.54342e-05
1.06854e-08
1.54321e-05
2.13991e-08
1.54275e-05
2.68379e-08
1.54234e-05
2.98797e-08
1.54209e-05
3.30916e-08
1.5419e-05
3.72739e-08
1.54176e-05
4.10983e-08
1.54166e-05
4.50406e-08
1.5416e-05
4.79789e-08
1.54159e-05
5.00208e-08
1.54164e-05
5.15799e-08
5.23365e-08
1.54173e-05
1.66823e-05
-1.04334e-09
1.66833e-05
-2.92907e-09
1.66832e-05
-1.35439e-09
1.66804e-05
-8.08015e-09
1.668e-05
-8.70073e-09
1.66773e-05
-1.55215e-10
1.667e-05
3.90478e-09
1.66639e-05
5.9263e-09
1.66624e-05
1.21499e-08
1.66624e-05
2.13668e-08
1.66602e-05
2.91058e-08
1.66566e-05
3.34554e-08
1.66535e-05
3.62269e-08
1.66516e-05
3.91412e-08
1.66505e-05
4.22416e-08
1.66498e-05
4.57122e-08
1.66495e-05
4.82728e-08
1.66496e-05
4.99463e-08
1.66502e-05
5.09548e-08
5.12898e-08
1.66512e-05
1.80144e-05
-1.018e-09
1.80146e-05
-3.15535e-09
1.80153e-05
-2.09956e-09
1.80119e-05
-4.6474e-09
1.80089e-05
-5.72477e-09
1.80073e-05
1.5256e-09
1.80025e-05
8.70696e-09
1.79959e-05
1.24646e-08
1.79916e-05
1.65058e-08
1.79905e-05
2.23878e-08
1.79901e-05
2.95318e-08
1.79881e-05
3.55062e-08
1.79854e-05
3.8925e-08
1.79832e-05
4.1318e-08
1.7982e-05
4.33873e-08
1.79817e-05
4.60778e-08
1.79817e-05
4.82452e-08
1.79821e-05
4.9573e-08
1.79828e-05
5.02639e-08
5.01181e-08
1.79839e-05
1.94527e-05
-1.01207e-09
1.94522e-05
-2.65616e-09
1.94525e-05
-2.46649e-09
1.94501e-05
-2.23355e-09
1.94454e-05
-9.92442e-10
1.94426e-05
4.30201e-09
1.94399e-05
1.14057e-08
1.94348e-05
1.75742e-08
1.94296e-05
2.16718e-08
1.94267e-05
2.53606e-08
1.94258e-05
3.03956e-08
1.94253e-05
3.60407e-08
1.94236e-05
4.05706e-08
1.94218e-05
4.3183e-08
1.94205e-05
4.46132e-08
1.94202e-05
4.64053e-08
1.94205e-05
4.79491e-08
1.94212e-05
4.88819e-08
1.94221e-05
4.93328e-08
4.88948e-08
1.94234e-05
2.10056e-05
-8.43121e-10
2.10049e-05
-1.8899e-09
2.1004e-05
-1.61431e-09
2.10023e-05
-5.50056e-10
2.0998e-05
3.33745e-09
2.09937e-05
8.64451e-09
2.09909e-05
1.41893e-08
2.09878e-05
2.06349e-08
2.09835e-05
2.603e-08
2.09795e-05
2.93196e-08
2.09776e-05
3.23338e-08
2.09769e-05
3.66735e-08
2.09765e-05
4.09794e-08
2.09754e-05
4.43065e-08
2.09744e-05
4.55844e-08
2.09742e-05
4.66747e-08
2.09745e-05
4.7569e-08
2.09754e-05
4.80137e-08
2.09767e-05
4.80804e-08
4.75521e-08
2.0978e-05
2.26826e-05
-4.91901e-10
2.26817e-05
-1.04737e-09
2.26799e-05
2.3911e-10
2.26777e-05
1.61203e-09
2.26744e-05
6.66646e-09
2.26698e-05
1.31954e-08
2.26663e-05
1.77626e-08
2.26638e-05
2.31326e-08
2.26608e-05
2.9022e-08
2.26573e-05
3.277e-08
2.26545e-05
3.51353e-08
2.26534e-05
3.77616e-08
2.26532e-05
4.12361e-08
2.26531e-05
4.43829e-08
2.26526e-05
4.60881e-08
2.26526e-05
4.67094e-08
2.26531e-05
4.70387e-08
2.2654e-05
4.70584e-08
2.26554e-05
4.67135e-08
4.59129e-08
2.26571e-05
2.44934e-05
1.15303e-11
2.44923e-05
1.03419e-10
2.449e-05
2.49222e-09
2.4487e-05
4.60315e-09
2.44842e-05
9.54141e-09
2.44804e-05
1.69607e-08
2.44764e-05
2.17324e-08
2.44737e-05
2.58939e-08
2.44716e-05
3.1131e-08
2.44689e-05
3.54073e-08
2.44664e-05
3.76414e-08
2.44647e-05
3.94754e-08
2.44644e-05
4.15794e-08
2.44646e-05
4.41068e-08
2.4465e-05
4.57742e-08
2.44652e-05
4.6456e-08
2.4466e-05
4.62502e-08
2.44671e-05
4.59241e-08
2.44686e-05
4.52711e-08
4.41442e-08
2.44703e-05
2.64489e-05
6.42441e-10
2.64474e-05
1.62439e-09
2.6445e-05
4.94592e-09
2.64415e-05
8.01507e-09
2.64384e-05
1.27182e-08
2.64354e-05
1.99035e-08
2.64318e-05
2.53811e-08
2.64288e-05
2.8891e-08
2.64268e-05
3.31212e-08
2.6425e-05
3.717e-08
2.64231e-05
3.95896e-08
2.64216e-05
4.09547e-08
2.64209e-05
4.22649e-08
2.64213e-05
4.3689e-08
2.64221e-05
4.50369e-08
2.64229e-05
4.56362e-08
2.64239e-05
4.52838e-08
2.64253e-05
4.45103e-08
2.64269e-05
4.36475e-08
4.23285e-08
2.64287e-05
2.85606e-05
1.31879e-09
2.85587e-05
3.53897e-09
2.85561e-05
7.54355e-09
2.85526e-05
1.15661e-08
2.85492e-05
1.61311e-08
2.85464e-05
2.26488e-08
2.85435e-05
2.83248e-08
2.85405e-05
3.18362e-08
2.85386e-05
3.50797e-08
2.85372e-05
3.85156e-08
2.85359e-05
4.09299e-08
2.85349e-05
4.19132e-08
2.85344e-05
4.2805e-08
2.85347e-05
4.34177e-08
2.85357e-05
4.39625e-08
2.8537e-05
4.43843e-08
2.85383e-05
4.39828e-08
2.85399e-05
4.28544e-08
2.85418e-05
4.17873e-08
4.03665e-08
2.85438e-05
3.08409e-05
2.05482e-09
3.08388e-05
5.70205e-09
3.0836e-05
1.02972e-08
3.08326e-05
1.50076e-08
3.08291e-05
1.96437e-08
3.08263e-05
2.5397e-08
3.08238e-05
3.08445e-08
3.08213e-05
3.43454e-08
3.08194e-05
3.69914e-08
3.08183e-05
3.95786e-08
3.08175e-05
4.17517e-08
3.0817e-05
4.2457e-08
3.08169e-05
4.28434e-08
3.08172e-05
4.30977e-08
3.08184e-05
4.27697e-08
3.08201e-05
4.27545e-08
3.08218e-05
4.22831e-08
3.08236e-05
4.10466e-08
3.08256e-05
3.97399e-08
3.82e-08
3.08278e-05
3.33033e-05
2.8441e-09
3.33011e-05
7.89512e-09
3.32982e-05
1.32085e-08
3.32949e-05
1.83006e-08
3.32915e-05
2.30753e-08
3.32887e-05
2.81354e-08
3.32866e-05
3.30382e-08
3.32844e-05
3.647e-08
3.32827e-05
3.87208e-08
3.32818e-05
4.04549e-08
3.32814e-05
4.21495e-08
3.32813e-05
4.25909e-08
3.32817e-05
4.24653e-08
3.32823e-05
4.24451e-08
3.32835e-05
4.16075e-08
3.32853e-05
4.0902e-08
3.32874e-05
4.02451e-08
3.32894e-05
3.89967e-08
3.32916e-05
3.75764e-08
3.5788e-08
3.3294e-05
3.59623e-05
3.62959e-09
3.59602e-05
1.00378e-08
3.59573e-05
1.609e-08
3.59542e-05
2.14348e-08
3.5951e-05
2.62966e-08
3.59483e-05
3.08116e-08
3.59463e-05
3.50583e-08
3.59446e-05
3.81675e-08
3.59432e-05
4.01257e-08
3.59424e-05
4.12613e-08
3.59423e-05
4.22093e-08
3.59425e-05
4.23934e-08
3.59432e-05
4.17937e-08
3.59443e-05
4.13493e-08
3.59456e-05
4.02777e-08
3.59475e-05
3.89898e-08
3.59498e-05
3.79556e-08
3.59522e-05
3.65601e-08
3.59546e-05
3.52129e-08
3.32301e-08
3.59572e-05
3.88337e-05
4.3895e-09
3.88317e-05
1.20203e-08
3.8829e-05
1.87802e-08
3.88261e-05
2.43551e-08
3.88232e-05
2.91848e-08
3.88207e-05
3.33083e-08
3.88188e-05
3.69389e-08
3.88175e-05
3.95056e-08
3.88165e-05
4.11488e-08
3.88159e-05
4.18253e-08
3.8816e-05
4.21395e-08
3.88164e-05
4.19451e-08
3.88173e-05
4.0915e-08
3.88187e-05
3.99746e-08
3.88203e-05
3.86804e-08
3.88223e-05
3.69743e-08
3.88247e-05
3.55913e-08
3.88274e-05
3.38215e-08
3.88303e-05
3.2331e-08
3.0671e-08
3.88328e-05
4.19344e-05
5.06733e-09
4.19326e-05
1.37617e-08
4.19302e-05
2.11466e-08
4.19277e-05
2.6897e-08
4.19252e-05
3.16484e-08
4.19231e-05
3.54392e-08
4.19214e-05
3.86128e-08
4.19203e-05
4.06011e-08
4.19196e-05
4.18554e-08
4.19193e-05
4.21235e-08
4.19196e-05
4.18951e-08
4.19202e-05
4.13327e-08
4.19212e-05
3.98838e-08
4.19228e-05
3.84129e-08
4.19246e-05
3.68861e-08
4.19268e-05
3.47985e-08
4.19292e-05
3.3106e-08
4.1932e-05
3.11091e-08
4.1935e-05
2.93103e-08
2.74511e-08
4.19382e-05
4.52826e-05
5.61996e-09
4.52812e-05
1.51487e-08
4.52793e-05
2.30227e-08
4.52774e-05
2.88856e-08
4.52754e-05
3.35734e-08
4.52738e-05
3.70478e-08
4.52725e-05
3.99296e-08
4.52716e-05
4.15045e-08
4.52711e-05
4.23199e-08
4.52711e-05
4.217e-08
4.52716e-05
4.14127e-08
4.52724e-05
4.04759e-08
4.52736e-05
3.87298e-08
4.52753e-05
3.66947e-08
4.52772e-05
3.50036e-08
4.52794e-05
3.26003e-08
4.5282e-05
3.05053e-08
4.52848e-05
2.82447e-08
4.5288e-05
2.61669e-08
2.42179e-08
4.52912e-05
4.88982e-05
5.9876e-09
4.88973e-05
1.60696e-08
4.88961e-05
2.42624e-08
4.88948e-05
3.0182e-08
4.88936e-05
3.47864e-08
4.88927e-05
3.79247e-08
4.88921e-05
4.05298e-08
4.88916e-05
4.20246e-08
4.88912e-05
4.26773e-08
4.88912e-05
4.21457e-08
4.88918e-05
4.08299e-08
4.88929e-05
3.93597e-08
4.88942e-05
3.74359e-08
4.88961e-05
3.47927e-08
4.88983e-05
3.27888e-08
4.89006e-05
3.03534e-08
4.89033e-05
2.78038e-08
4.89061e-05
2.54071e-08
4.89093e-05
2.30176e-08
2.09942e-08
4.89125e-05
5.28026e-05
6.12827e-09
5.28022e-05
1.63898e-08
5.28018e-05
2.46908e-08
5.28014e-05
3.05586e-08
5.28011e-05
3.51475e-08
5.2801e-05
3.80196e-08
5.28014e-05
4.01552e-08
5.28019e-05
4.15102e-08
5.28022e-05
4.23498e-08
5.28022e-05
4.21155e-08
5.28023e-05
4.07526e-08
5.28034e-05
3.82742e-08
5.28046e-05
3.61942e-08
5.28063e-05
3.31179e-08
5.28087e-05
3.04468e-08
5.28115e-05
2.75526e-08
5.28147e-05
2.45625e-08
5.28175e-05
2.25633e-08
5.28207e-05
1.98836e-08
1.76106e-08
5.28241e-05
5.70187e-05
5.99717e-09
5.7019e-05
1.60002e-08
5.70196e-05
2.41142e-08
5.70204e-05
2.98007e-08
5.70212e-05
3.43533e-08
5.7022e-05
3.71445e-08
5.70232e-05
3.9007e-08
5.70249e-05
3.97914e-08
5.70271e-05
4.01599e-08
5.70288e-05
4.03706e-08
5.70296e-05
3.99929e-08
5.70296e-05
3.82812e-08
5.70294e-05
3.63672e-08
5.70292e-05
3.33448e-08
5.70297e-05
2.99259e-08
5.70314e-05
2.58755e-08
5.70343e-05
2.16563e-08
5.70385e-05
1.83338e-08
5.70432e-05
1.52428e-08
1.26874e-08
5.70481e-05
6.15714e-05
5.55893e-09
6.15725e-05
1.48439e-08
6.15743e-05
2.23558e-08
6.15765e-05
2.76221e-08
6.15789e-05
3.18963e-08
6.15814e-05
3.47091e-08
6.15835e-05
3.6887e-08
6.15853e-05
3.80091e-08
6.15872e-05
3.81692e-08
6.1591e-05
3.66289e-08
6.15957e-05
3.52469e-08
6.1601e-05
3.30202e-08
6.16066e-05
3.07505e-08
6.16118e-05
2.81549e-08
6.16165e-05
2.52644e-08
6.16187e-05
2.36632e-08
6.16196e-05
2.06881e-08
6.16204e-05
1.75783e-08
6.16211e-05
1.4578e-08
1.17766e-08
6.1622e-05
6.64876e-05
4.78292e-09
6.64897e-05
1.26894e-08
6.64928e-05
1.92908e-08
6.64966e-05
2.38587e-08
6.65008e-05
2.76207e-08
6.65055e-05
3.00457e-08
6.65103e-05
3.21112e-08
6.6515e-05
3.33214e-08
6.65187e-05
3.44367e-08
6.65198e-05
3.55576e-08
6.65191e-05
3.58746e-08
6.65174e-05
3.48083e-08
6.65151e-05
3.29544e-08
6.65131e-05
3.01602e-08
6.6513e-05
2.54424e-08
6.65154e-05
2.11777e-08
6.65191e-05
1.70244e-08
6.65239e-05
1.27958e-08
6.65295e-05
8.9992e-09
5.59785e-09
6.65357e-05
7.17961e-05
3.80026e-09
7.1799e-05
9.84249e-09
7.18034e-05
1.49247e-08
7.18087e-05
1.8496e-08
7.18148e-05
2.15429e-08
7.18212e-05
2.36295e-08
7.18278e-05
2.54934e-08
7.18345e-05
2.66287e-08
7.18414e-05
2.75683e-08
7.18492e-05
2.77869e-08
7.18573e-05
2.77069e-08
7.18652e-05
2.69187e-08
7.18725e-05
2.56334e-08
7.18789e-05
2.38189e-08
7.18829e-05
2.14411e-08
7.18856e-05
1.84991e-08
7.18875e-05
1.51356e-08
7.1889e-05
1.12169e-08
7.18902e-05
7.798e-09
4.67593e-09
7.18912e-05
7.75291e-05
7.75332e-05
7.75392e-05
7.75465e-05
7.75547e-05
7.75636e-05
7.75731e-05
7.75828e-05
7.75928e-05
7.76027e-05
7.76125e-05
7.76219e-05
7.76308e-05
7.76391e-05
7.76463e-05
7.76523e-05
7.76567e-05
7.76592e-05
7.76604e-05
7.76603e-05
3.77431e-06
6.8097e-08
3.68025e-06
9.40598e-08
3.5805e-06
9.97487e-08
3.48205e-06
9.84498e-08
3.38384e-06
9.82165e-08
3.28448e-06
9.93545e-08
3.18337e-06
1.01116e-07
3.08041e-06
1.02952e-07
2.9757e-06
1.04718e-07
2.86915e-06
1.06542e-07
2.7609e-06
1.08256e-07
2.65075e-06
1.10149e-07
2.53864e-06
1.12112e-07
2.42465e-06
1.13986e-07
2.30884e-06
1.15813e-07
2.19141e-06
1.17428e-07
2.07249e-06
1.18914e-07
1.95233e-06
1.20169e-07
1.83109e-06
1.21236e-07
1.70936e-06
1.21728e-07
1.58824e-06
1.21118e-07
1.46896e-06
1.19278e-07
1.35349e-06
1.1547e-07
1.24433e-06
1.09164e-07
1.14495e-06
9.93857e-08
1.05889e-06
8.60511e-08
9.89125e-07
6.97685e-08
9.36623e-07
5.25027e-08
8.99518e-07
3.71051e-08
8.73933e-07
2.55847e-08
8.55883e-07
1.80503e-08
8.4257e-07
1.33123e-08
8.31906e-07
1.06645e-08
8.22687e-07
9.21871e-09
8.14322e-07
8.36473e-09
8.06107e-07
8.21525e-09
7.97455e-07
8.65192e-09
7.88212e-07
9.24343e-09
7.78445e-07
9.76719e-09
7.68302e-07
1.01424e-08
7.57923e-07
1.03793e-08
7.47383e-07
1.05401e-08
7.36604e-07
1.07794e-08
7.25618e-07
1.09858e-08
7.14824e-07
1.07934e-08
7.04213e-07
1.06116e-08
6.93563e-07
1.06492e-08
6.8325e-07
1.03137e-08
6.7328e-07
9.96959e-09
6.63555e-07
9.72556e-09
6.54099e-07
9.45564e-09
6.44775e-07
9.32367e-09
6.36025e-07
8.75022e-09
6.27548e-07
8.4771e-09
6.19116e-07
8.43178e-09
6.11584e-07
7.53262e-09
6.04512e-07
7.07129e-09
5.97203e-07
7.30918e-09
5.90324e-07
6.8792e-09
5.83902e-07
6.42161e-09
5.7791e-07
5.99266e-09
5.72607e-07
5.30243e-09
5.67244e-07
5.36315e-09
5.61738e-07
5.50587e-09
5.57176e-07
4.56222e-09
5.5357e-07
3.60597e-09
5.49716e-07
3.85377e-09
5.4562e-07
4.0961e-09
5.42325e-07
3.29548e-09
5.39662e-07
2.66287e-09
5.36905e-07
2.75635e-09
5.34328e-07
2.5777e-09
5.32216e-07
2.11212e-09
5.30222e-07
1.99341e-09
5.28456e-07
1.76604e-09
5.26983e-07
1.47286e-09
5.25538e-07
1.44502e-09
5.24243e-07
1.29564e-09
5.23265e-07
9.77262e-10
5.22383e-07
8.82372e-10
5.21512e-07
8.70664e-10
5.20831e-07
6.80877e-10
5.20302e-07
5.29616e-10
5.19777e-07
5.24655e-10
5.19334e-07
4.43321e-10
5.19002e-07
3.31737e-10
5.18736e-07
2.66495e-10
5.18502e-07
2.33463e-10
5.18327e-07
1.74991e-10
5.182e-07
1.27344e-10
5.18112e-07
8.73778e-11
5.18033e-07
7.97045e-11
5.17997e-07
3.54797e-11
5.17954e-07
4.30824e-11
5.17937e-07
1.69217e-11
5.1791e-07
2.74648e-11
5.17881e-07
2.87894e-11
5.17834e-07
4.71219e-11
5.17725e-07
1.08993e-10
3.95653e-10
4.16421e-06
6.28672e-08
4.16826e-06
9.00008e-08
4.16286e-06
1.05157e-07
4.15283e-06
1.08475e-07
4.1418e-06
1.09248e-07
4.1297e-06
1.1146e-07
4.11541e-06
1.15397e-07
4.09833e-06
1.20035e-07
4.07829e-06
1.2476e-07
4.05519e-06
1.29644e-07
4.02898e-06
1.34468e-07
3.99949e-06
1.39638e-07
3.96651e-06
1.45093e-07
3.92987e-06
1.50627e-07
3.88944e-06
1.56241e-07
3.84503e-06
1.61833e-07
3.7966e-06
1.67353e-07
3.74401e-06
1.7275e-07
3.68716e-06
1.78093e-07
3.62609e-06
1.82797e-07
3.56101e-06
1.86199e-07
3.49249e-06
1.87801e-07
3.42123e-06
1.86723e-07
3.34823e-06
1.82169e-07
3.275e-06
1.72616e-07
3.20331e-06
1.57734e-07
3.13532e-06
1.37759e-07
3.07231e-06
1.15514e-07
3.01525e-06
9.41629e-08
2.96384e-06
7.69976e-08
2.91639e-06
6.55032e-08
2.87172e-06
5.79765e-08
2.82867e-06
5.37237e-08
2.78674e-06
5.11417e-08
2.74618e-06
4.89314e-08
2.70609e-06
4.83032e-08
2.66645e-06
4.8294e-08
2.62712e-06
4.85718e-08
2.58759e-06
4.92937e-08
2.54875e-06
4.89847e-08
2.51065e-06
4.84741e-08
2.47275e-06
4.84429e-08
2.43535e-06
4.8177e-08
2.39826e-06
4.80771e-08
2.36156e-06
4.74901e-08
2.32574e-06
4.64404e-08
2.29047e-06
4.59115e-08
2.25604e-06
4.47478e-08
2.22264e-06
4.33662e-08
2.18983e-06
4.25418e-08
2.15784e-06
4.14392e-08
2.12702e-06
4.01478e-08
2.09696e-06
3.88075e-08
2.0675e-06
3.79359e-08
2.03947e-06
3.64621e-08
2.01323e-06
3.37778e-08
1.98767e-06
3.26326e-08
1.96246e-06
3.25164e-08
1.93864e-06
3.06948e-08
1.91642e-06
2.86477e-08
1.89533e-06
2.7084e-08
1.87506e-06
2.5564e-08
1.85549e-06
2.49409e-08
1.83719e-06
2.38062e-08
1.82066e-06
2.1086e-08
1.80531e-06
1.89549e-08
1.79041e-06
1.87562e-08
1.77637e-06
1.81364e-08
1.7638e-06
1.58631e-08
1.75236e-06
1.41104e-08
1.74156e-06
1.35511e-08
1.73165e-06
1.24851e-08
1.72276e-06
1.10052e-08
1.71463e-06
1.01258e-08
1.70727e-06
9.12395e-09
1.70064e-06
8.10516e-09
1.69457e-06
7.51253e-09
1.68918e-06
6.68781e-09
1.68449e-06
5.66951e-09
1.68029e-06
5.08313e-09
1.67652e-06
4.63711e-09
1.67327e-06
3.92715e-09
1.67044e-06
3.35861e-09
1.66792e-06
3.04697e-09
1.66576e-06
2.6092e-09
1.66393e-06
2.15486e-09
1.66239e-06
1.80901e-09
1.66109e-06
1.53805e-09
1.66002e-06
1.23629e-09
1.65917e-06
9.86156e-10
1.65849e-06
7.61367e-10
1.65795e-06
6.25072e-10
1.65756e-06
4.2087e-10
1.65724e-06
3.59924e-10
1.65705e-06
2.07741e-10
1.65688e-06
2.04763e-10
1.65679e-06
1.14774e-10
1.65665e-06
1.87089e-10
1.65657e-06
1.85684e-10
9.63234e-10
4.49694e-06
6.09436e-08
4.50276e-06
8.41791e-08
4.5063e-06
1.01624e-07
4.50572e-06
1.09054e-07
4.50412e-06
1.10847e-07
4.50342e-06
1.12153e-07
4.50338e-06
1.15445e-07
4.50327e-06
1.20143e-07
4.5026e-06
1.25432e-07
4.50121e-06
1.31026e-07
4.49904e-06
1.36639e-07
4.49604e-06
1.42641e-07
4.49207e-06
1.49065e-07
4.48694e-06
1.55755e-07
4.48057e-06
1.62614e-07
4.4727e-06
1.69698e-07
4.4633e-06
1.76751e-07
4.45217e-06
1.83878e-07
4.43921e-06
1.91058e-07
4.4243e-06
1.97709e-07
4.40732e-06
2.03179e-07
4.38845e-06
2.0667e-07
4.36755e-06
2.07626e-07
4.34478e-06
2.04931e-07
4.32028e-06
1.97123e-07
4.29429e-06
1.8372e-07
4.26735e-06
1.64697e-07
4.24006e-06
1.42804e-07
4.21336e-06
1.20864e-07
4.18793e-06
1.02433e-07
4.16338e-06
9.00496e-08
4.13927e-06
8.20855e-08
4.11504e-06
7.79568e-08
4.09048e-06
7.57014e-08
4.06573e-06
7.36784e-08
4.04044e-06
7.3593e-08
4.01463e-06
7.41041e-08
3.98823e-06
7.49718e-08
3.96105e-06
7.64793e-08
3.93335e-06
7.66757e-08
3.90526e-06
7.65646e-08
3.87666e-06
7.70477e-08
3.84729e-06
7.7543e-08
3.81736e-06
7.80096e-08
3.78687e-06
7.79786e-08
3.7558e-06
7.75132e-08
3.72453e-06
7.71828e-08
3.69291e-06
7.63657e-08
3.66125e-06
7.50264e-08
3.62964e-06
7.4153e-08
3.59748e-06
7.35961e-08
3.56556e-06
7.20721e-08
3.53371e-06
7.06516e-08
3.50111e-06
7.05435e-08
3.46907e-06
6.84963e-08
3.43803e-06
6.4816e-08
3.40684e-06
6.38285e-08
3.37577e-06
6.35867e-08
3.34535e-06
6.11145e-08
3.31549e-06
5.85064e-08
3.28658e-06
5.5992e-08
3.25832e-06
5.38268e-08
3.22996e-06
5.3297e-08
3.20252e-06
5.12504e-08
3.17703e-06
4.65762e-08
3.15239e-06
4.35956e-08
3.12783e-06
4.33121e-08
3.10452e-06
4.14493e-08
3.08287e-06
3.75107e-08
3.06216e-06
3.48187e-08
3.04237e-06
3.33468e-08
3.02383e-06
3.10254e-08
3.00643e-06
2.84002e-08
2.99022e-06
2.63399e-08
2.97524e-06
2.40971e-08
2.96122e-06
2.2124e-08
2.94814e-06
2.06021e-08
2.93622e-06
1.86053e-08
2.92537e-06
1.65137e-08
2.91542e-06
1.50411e-08
2.90639e-06
1.36587e-08
2.8983e-06
1.20174e-08
2.89098e-06
1.06865e-08
2.88434e-06
9.68605e-09
2.87845e-06
8.50083e-09
2.87324e-06
7.36428e-09
2.86866e-06
6.38714e-09
2.86464e-06
5.55618e-09
2.86119e-06
4.68188e-09
2.85821e-06
3.96887e-09
2.85571e-06
3.26425e-09
2.85356e-06
2.77532e-09
2.85184e-06
2.14293e-09
2.85037e-06
1.82928e-09
2.84928e-06
1.2991e-09
2.84834e-06
1.13596e-09
2.84772e-06
7.36127e-10
2.84716e-06
7.50115e-10
2.84683e-06
5.19937e-10
1.56203e-09
4.8576e-06
6.05974e-08
4.86184e-06
7.99412e-08
4.86644e-06
9.70198e-08
4.86779e-06
1.07709e-07
4.86712e-06
1.11515e-07
4.86694e-06
1.12339e-07
4.86754e-06
1.1484e-07
4.86887e-06
1.18811e-07
4.8704e-06
1.23909e-07
4.87183e-06
1.29596e-07
4.87309e-06
1.35371e-07
4.87426e-06
1.41478e-07
4.87534e-06
1.47982e-07
4.87626e-06
1.54839e-07
4.87706e-06
1.61812e-07
4.87761e-06
1.69144e-07
4.87798e-06
1.76388e-07
4.87809e-06
1.83765e-07
4.87795e-06
1.91193e-07
4.87758e-06
1.9808e-07
4.87687e-06
2.03893e-07
4.87593e-06
2.07605e-07
4.87453e-06
2.09029e-07
4.87243e-06
2.0703e-07
4.86944e-06
2.00112e-07
4.86516e-06
1.88004e-07
4.85931e-06
1.70542e-07
4.852e-06
1.50111e-07
4.84373e-06
1.29136e-07
4.83528e-06
1.10883e-07
4.82697e-06
9.83627e-08
4.81865e-06
9.0402e-08
4.81018e-06
8.64247e-08
4.80138e-06
8.45057e-08
4.79226e-06
8.27996e-08
4.78279e-06
8.30615e-08
4.77298e-06
8.39124e-08
4.76285e-06
8.51038e-08
4.75223e-06
8.70983e-08
4.74115e-06
8.77597e-08
4.72961e-06
8.80974e-08
4.71767e-06
8.89965e-08
4.70514e-06
9.00648e-08
4.69204e-06
9.11135e-08
4.67838e-06
9.16424e-08
4.6639e-06
9.19881e-08
4.64886e-06
9.2226e-08
4.63323e-06
9.19895e-08
4.617e-06
9.12625e-08
4.60055e-06
9.06057e-08
4.58343e-06
9.07101e-08
4.56589e-06
8.96168e-08
4.54819e-06
8.83451e-08
4.52958e-06
8.91598e-08
4.51058e-06
8.74925e-08
4.49172e-06
8.36804e-08
4.47214e-06
8.34084e-08
4.45203e-06
8.36951e-08
4.43186e-06
8.12864e-08
4.41145e-06
7.89105e-08
4.39118e-06
7.62589e-08
4.37101e-06
7.4006e-08
4.35032e-06
7.39846e-08
4.32956e-06
7.20083e-08
4.30954e-06
6.65934e-08
4.28972e-06
6.34179e-08
4.26943e-06
6.36e-08
4.24947e-06
6.14106e-08
4.23036e-06
5.66238e-08
4.21153e-06
5.36493e-08
4.19298e-06
5.18989e-08
4.17512e-06
4.88801e-08
4.15777e-06
4.57469e-08
4.14096e-06
4.31588e-08
4.12497e-06
4.0079e-08
4.10964e-06
3.74535e-08
4.09489e-06
3.53528e-08
4.08092e-06
3.25796e-08
4.0677e-06
2.97297e-08
4.05512e-06
2.7627e-08
4.04335e-06
2.54251e-08
4.03244e-06
2.29282e-08
4.02226e-06
2.08702e-08
4.01269e-06
1.9249e-08
4.00385e-06
1.73475e-08
3.99564e-06
1.55701e-08
3.98815e-06
1.38798e-08
3.9813e-06
1.24083e-08
3.97519e-06
1.07848e-08
3.96967e-06
9.49227e-09
3.9648e-06
8.13346e-09
3.96041e-06
7.1659e-09
3.95661e-06
5.94025e-09
3.95324e-06
5.19973e-09
3.95042e-06
4.12442e-09
3.948e-06
3.5548e-09
3.94604e-06
2.69854e-09
3.94443e-06
2.35805e-09
3.94314e-06
1.8055e-09
2.63571e-09
5.24713e-06
6.05613e-08
5.25029e-06
7.67841e-08
5.2544e-06
9.2916e-08
5.257e-06
1.05103e-07
5.25748e-06
1.11032e-07
5.2573e-06
1.1252e-07
5.25762e-06
1.14523e-07
5.2588e-06
1.17633e-07
5.2605e-06
1.22206e-07
5.26228e-06
1.27814e-07
5.26397e-06
1.3368e-07
5.26565e-06
1.39799e-07
5.26736e-06
1.46277e-07
5.26906e-06
1.53138e-07
5.27084e-06
1.60031e-07
5.27267e-06
1.67317e-07
5.27458e-06
1.74471e-07
5.27665e-06
1.81697e-07
5.27889e-06
1.88961e-07
5.2814e-06
1.95566e-07
5.28412e-06
2.0117e-07
5.28712e-06
2.04603e-07
5.29028e-06
2.05878e-07
5.29328e-06
2.04021e-07
5.29587e-06
1.97522e-07
5.29759e-06
1.8629e-07
5.29796e-06
1.70168e-07
5.29691e-06
1.51163e-07
5.29469e-06
1.31361e-07
5.29199e-06
1.13575e-07
5.28937e-06
1.00987e-07
5.28684e-06
9.29312e-08
5.28443e-06
8.88333e-08
5.28192e-06
8.7019e-08
5.27923e-06
8.5485e-08
5.27652e-06