/*--------------------------------*- C++ -*----------------------------------*\
  =========                 |
  \\      /  F ield         | OpenFOAM: The Open Source CFD Toolbox
   \\    /   O peration     | Website:  https://openfoam.org
    \\  /    A nd           | Version:  10
     \\/     M anipulation  |
\*---------------------------------------------------------------------------*/
FoamFile
{
    format      ascii;
    class       volVectorField;
    location    "0.7";
    object      U;
}
// * * * * * * * * * * * * * * * * * * * * * * * * * * * * * * * * * * * * * //

dimensions      [0 1 -1 0 0 0 0];

internalField   nonuniform List<vector> 
4800
(
(0.960628 -4.8226e-05 0)
(1.03853 -0.000115306 0)
(0.964227 0.000254089 0)
(1.03531 -0.00039562 0)
(0.967332 4.48257e-05 0)
(1.03142 -0.000386919 0)
(0.970325 0.000169756 0)
(1.02805 -0.000267005 0)
(0.973587 9.72962e-05 0)
(1.02513 -0.000531392 0)
(0.976445 1.13747e-07 0)
(1.02223 -0.000628078 0)
(0.978981 -2.83161e-05 0)
(1.01943 -0.000676791 0)
(0.981092 -7.84318e-05 0)
(1.01659 -0.00059305 0)
(0.982803 -4.64146e-05 0)
(1.01356 -0.000394532 0)
(0.983697 0.000491169 0)
(1.01042 0.000874436 0)
(0.98295 -0.00011288 0)
(1.01434 -6.15035e-05 0)
(0.986885 0.000209297 0)
(1.0113 -0.000343915 0)
(0.989869 2.84288e-05 0)
(1.00805 -0.000352252 0)
(0.992255 0.000163525 0)
(1.00565 -0.000300453 0)
(0.994553 9.37148e-05 0)
(1.00399 -0.000613424 0)
(0.996091 -1.68294e-05 0)
(1.00251 -0.000725359 0)
(0.99715 -5.96078e-05 0)
(1.00129 -0.000778052 0)
(0.99772 -0.000104114 0)
(1.00008 -0.000653772 0)
(0.997865 4.10249e-05 0)
(0.998768 -8.94007e-05 0)
(0.997435 0.00129686 0)
(0.997358 0.00213959 0)
(0.996056 -1.51756e-05 0)
(1.00253 -0.00016289 0)
(0.997432 0.000272837 0)
(1.00174 -0.00038298 0)
(0.998242 7.63759e-05 0)
(1.00069 -0.000338746 0)
(0.998712 0.000128338 0)
(1.00024 -0.000242616 0)
(0.999331 3.01621e-06 0)
(1.00017 -0.000417431 0)
(0.999539 -0.000168527 0)
(0.999912 -0.000441727 0)
(0.999556 -0.000260519 0)
(0.999631 -0.000494164 0)
(0.999347 -0.000314032 0)
(0.999185 -0.000292521 0)
(0.998945 -3.61603e-06 0)
(0.998548 0.000588302 0)
(0.998175 0.001535 0)
(0.997733 0.00251167 0)
(0.99947 -3.55503e-05 0)
(1.00017 -0.000145661 0)
(0.999706 0.000255338 0)
(1.00024 -0.000383732 0)
(0.999736 4.40716e-05 0)
(0.999895 -0.000305366 0)
(0.999764 6.29292e-05 0)
(0.999905 -0.000170841 0)
(0.999984 -0.000134411 0)
(1.00006 -0.000331131 0)
(1 -0.000296915 0)
(0.99996 -0.000406677 0)
(0.999901 -0.000377987 0)
(0.999765 -0.000478946 0)
(0.999634 -0.000368382 0)
(0.999398 -0.000178409 0)
(0.999249 0.000198866 0)
(0.998911 0.000890937 0)
(0.998572 0.00170219 0)
(0.998172 0.002566 0)
(0.999995 -1.05579e-05 0)
(0.999926 -0.000136984 0)
(1.00003 0.0002181 0)
(1.00013 -0.000297934 0)
(0.999924 -1.16941e-05 0)
(0.99991 -0.000192134 0)
(0.999957 -5.12877e-05 0)
(0.999988 -6.52191e-05 0)
(1.00011 -0.000242734 0)
(1.0001 -0.000267579 0)
(1.00011 -0.000336828 0)
(1.00005 -0.000400606 0)
(1.00002 -0.000422585 0)
(0.999888 -0.000414865 0)
(0.99977 -0.000328702 0)
(0.999583 6.18446e-05 0)
(0.999468 0.000555257 0)
(0.999168 0.00120633 0)
(0.998853 0.0018801 0)
(0.998483 0.00266322 0)
(1.00006 -2.13694e-05 0)
(0.999909 -0.000125483 0)
(1.00009 0.000166596 0)
(1.00012 -0.000256871 0)
(0.99995 -8.70726e-05 0)
(0.999922 -0.000121607 0)
(1.00002 -0.000139672 0)
(1.00002 -2.91193e-05 0)
(1.00013 -0.000265667 0)
(1.00009 -0.000327924 0)
(1.00012 -0.000364199 0)
(1.00007 -0.000440116 0)
(1.00005 -0.000436979 0)
(0.999946 -0.000372467 0)
(0.999865 -0.000155139 0)
(0.999722 0.000361887 0)
(0.999623 0.000802061 0)
(0.999342 0.00137238 0)
(0.999066 0.00198037 0)
(0.998717 0.00270471 0)
(1.00008 -1.4657e-05 0)
(0.999903 -9.03327e-05 0)
(1.00011 0.000107011 0)
(1.00011 -0.000178993 0)
(0.999963 -0.000139277 0)
(0.999923 -6.58047e-05 0)
(1.00004 -0.00015119 0)
(1.00002 -9.93154e-05 0)
(1.00013 -0.000236178 0)
(1.00008 -0.000372621 0)
(1.00011 -0.000398196 0)
(1.00007 -0.000437607 0)
(1.00007 -0.000400295 0)
(0.999999 -0.000238322 0)
(0.999964 0.000124007 0)
(0.999827 0.000584178 0)
(0.999746 0.000984308 0)
(0.999488 0.0014915 0)
(0.999255 0.00207546 0)
(0.99893 0.00274661 0)
(1.0001 -2.24249e-05 0)
(0.9999 -5.0687e-05 0)
(1.00012 3.47788e-05 0)
(1.0001 -0.000120598 0)
(0.999975 -0.000173993 0)
(0.999924 -7.55363e-05 0)
(1.00004 -0.000127178 0)
(1.00002 -0.000159606 0)
(1.00012 -0.000278751 0)
(1.00007 -0.000358194 0)
(1.00011 -0.000441698 0)
(1.00008 -0.000408644 0)
(1.0001 -0.000308524 0)
(1.00007 -2.83574e-05 0)
(1.00005 0.000318742 0)
(0.999927 0.00072609 0)
(0.999864 0.00111141 0)
(0.999637 0.00158702 0)
(0.999443 0.00215052 0)
(0.999143 0.00277727 0)
(1.0001 -1.85003e-05 0)
(0.9999 -1.9484e-05 0)
(1.00012 -1.54059e-05 0)
(1.0001 -0.000112482 0)
(0.999981 -0.000141517 0)
(0.999932 -0.000132515 0)
(1.00004 -9.42717e-05 0)
(1.00001 -0.000189592 0)
(1.00012 -0.000325313 0)
(1.00006 -0.000381291 0)
(1.00011 -0.000398198 0)
(1.0001 -0.000377032 0)
(1.00015 -0.000125539 0)
(1.00013 0.000179988 0)
(1.00014 0.000491494 0)
(1.00002 0.000856186 0)
(0.999981 0.00122349 0)
(0.999788 0.00167756 0)
(0.99963 0.00221186 0)
(0.999355 0.00280249 0)
(1.0001 -2.41732e-05 0)
(0.999899 1.65593e-05 0)
(1.00012 -4.50135e-05 0)
(1.00009 -0.000145129 0)
(0.999982 -0.000105715 0)
(0.999935 -0.00015545 0)
(1.00004 -0.000152 0)
(0.999994 -0.000157632 0)
(1.0001 -0.000362051 0)
(1.00007 -0.000416996 0)
(1.00012 -0.00034214 0)
(1.00014 -0.000245738 0)
(1.00022 3.20832e-05 0)
(1.0002 0.000330611 0)
(1.00022 0.000607546 0)
(1.00012 0.00095327 0)
(1.0001 0.00131496 0)
(0.999945 0.00175839 0)
(0.999823 0.0022673 0)
(0.999571 0.00282092 0)
(1.0001 -1.94152e-05 0)
(0.999898 2.93338e-05 0)
(1.00011 -2.23855e-05 0)
(1.0001 -0.000219333 0)
(0.999986 -7.53174e-05 0)
(0.999931 -0.000147143 0)
(1.00005 -0.00020349 0)
(0.999982 -0.000173105 0)
(1.00008 -0.000328366 0)
(1.00007 -0.000410152 0)
(1.00015 -0.00026212 0)
(1.00018 -4.81696e-05 0)
(1.00027 0.000184798 0)
(1.00027 0.000447551 0)
(1.0003 0.000712912 0)
(1.00022 0.00104968 0)
(1.00023 0.00141434 0)
(1.00011 0.00184257 0)
(1.00001 0.00231985 0)
(0.999785 0.00282808 0)
(1.0001 -1.9322e-05 0)
(0.999898 3.08353e-05 0)
(1.0001 9.75155e-06 0)
(1.00009 -0.00026677 0)
(0.999995 -0.000114431 0)
(0.999922 -0.000107839 0)
(1.00004 -0.000227298 0)
(0.999976 -0.000230484 0)
(1.00007 -0.0002825 0)
(1.00008 -0.000328368 0)
(1.00019 -0.000170717 0)
(1.00024 6.69547e-05 0)
(1.00033 0.000306266 0)
(1.00034 0.000556865 0)
(1.00039 0.000820172 0)
(1.00033 0.00114257 0)
(1.00036 0.00150437 0)
(1.00027 0.00191843 0)
(1.00021 0.0023651 0)
(0.999997 0.00283626 0)
(1.0001 -1.462e-05 0)
(0.9999 1.42423e-05 0)
(1.00008 4.40247e-05 0)
(1.00009 -0.000256362 0)
(1.00001 -0.000200728 0)
(0.999919 -9.0526e-05 0)
(1.00003 -0.000202549 0)
(0.999974 -0.000250588 0)
(1.00007 -0.000257187 0)
(1.0001 -0.000193402 0)
(1.00023 -4.59363e-05 0)
(1.00029 0.000150974 0)
(1.0004 0.000387356 0)
(1.00041 0.000642415 0)
(1.00048 0.000906833 0)
(1.00045 0.0012203 0)
(1.0005 0.00156998 0)
(1.00044 0.00197329 0)
(1.0004 0.00239277 0)
(1.00021 0.00283024 0)
(1.0001 -1.15525e-05 0)
(0.999906 -7.80836e-06 0)
(1.00007 6.38085e-05 0)
(1.00007 -0.00019989 0)
(1.00002 -0.000277214 0)
(0.999926 -0.000143605 0)
(1.00002 -0.000156002 0)
(0.999969 -0.000207867 0)
(1.00008 -0.000227014 0)
(1.00013 -9.25075e-05 0)
(1.00027 9.8397e-05 0)
(1.00035 0.000268387 0)
(1.00047 0.000478489 0)
(1.00049 0.000730102 0)
(1.00058 0.000996557 0)
(1.00057 0.00130559 0)
(1.00065 0.00163686 0)
(1.00061 0.00202237 0)
(1.00059 0.00241735 0)
(1.00042 0.00282011 0)
(1.0001 -1.21964e-05 0)
(0.999913 -1.68103e-05 0)
(1.00006 4.49305e-05 0)
(1.00005 -0.00013368 0)
(1.00003 -0.000293053 0)
(0.999945 -0.000228762 0)
(1.00002 -0.000151884 0)
(0.999966 -0.000104732 0)
(1.00009 -0.000135365 0)
(1.00017 -3.36616e-05 0)
(1.00032 0.000198726 0)
(1.0004 0.000390255 0)
(1.00054 0.000580713 0)
(1.00058 0.000819606 0)
(1.00068 0.00108537 0)
(1.00069 0.00139046 0)
(1.0008 0.0017062 0)
(1.00079 0.00206761 0)
(1.00079 0.00244008 0)
(1.00063 0.00281103 0)
(1.0001 -1.29646e-05 0)
(0.999918 -1.32044e-05 0)
(1.00006 6.1892e-07 0)
(1.00003 -9.3128e-05 0)
(1.00002 -0.000245824 0)
(0.99996 -0.000280298 0)
(1.00005 -0.000214817 0)
(0.99998 -2.00248e-05 0)
(1.0001 3.47512e-05 0)
(1.00022 6.7893e-05 0)
(1.00039 0.000249262 0)
(1.00046 0.000466734 0)
(1.00061 0.000661089 0)
(1.00067 0.000892464 0)
(1.0008 0.00115356 0)
(1.00082 0.00145524 0)
(1.00096 0.00176094 0)
(1.00097 0.00209833 0)
(1.00099 0.0024469 0)
(1.00084 0.00278963 0)
(1.0001 -1.70612e-05 0)
(0.999919 -2.01298e-07 0)
(1.00006 -3.82589e-05 0)
(1.00002 -0.000101117 0)
(1 -0.000176662 0)
(0.99996 -0.00025029 0)
(1.00009 -0.000262104 0)
(1.00003 -2.31091e-05 0)
(1.00012 0.000179474 0)
(1.00024 0.000232249 0)
(1.00044 0.000340073 0)
(1.00053 0.000529624 0)
(1.00069 0.000730353 0)
(1.00077 0.000958123 0)
(1.00092 0.00121194 0)
(1.00096 0.00150703 0)
(1.00112 0.00180327 0)
(1.00115 0.00212047 0)
(1.00119 0.0024437 0)
(1.00105 0.00276147 0)
(1.0001 -1.61547e-05 0)
(0.999918 -3.81245e-07 0)
(1.00005 -3.78711e-05 0)
(1.00001 -0.000140017 0)
(0.999999 -0.00012865 0)
(0.99995 -0.00016794 0)
(1.00011 -0.000224375 0)
(1.00009 -6.74733e-05 0)
(1.00017 0.000221875 0)
(1.00027 0.000381582 0)
(1.00048 0.000486498 0)
(1.0006 0.000625389 0)
(1.00077 0.000805966 0)
(1.00087 0.00102209 0)
(1.00104 0.0012667 0)
(1.00111 0.00154994 0)
(1.00128 0.00183305 0)
(1.00134 0.00213094 0)
(1.00139 0.00242933 0)
(1.00126 0.00272237 0)
(1.0001 -1.25543e-05 0)
(0.999919 -1.58293e-05 0)
(1.00004 -1.88451e-05 0)
(1.00001 -0.0001513 0)
(1.00001 -0.000129352 0)
(0.999946 -7.34115e-05 0)
(1.00012 -0.000114986 0)
(1.00015 -5.01607e-05 0)
(1.00025 0.000196962 0)
(1.00032 0.000439029 0)
(1.00053 0.000598223 0)
(1.00065 0.000737966 0)
(1.00085 0.000893414 0)
(1.00097 0.00109044 0)
(1.00117 0.00131702 0)
(1.00126 0.00158453 0)
(1.00144 0.00185261 0)
(1.00152 0.00212901 0)
(1.00158 0.00240693 0)
(1.00147 0.00267394 0)
(1.0001 -1.08441e-05 0)
(0.999922 -2.88545e-05 0)
(1.00003 -1.34332e-05 0)
(1 -0.000119756 0)
(1.00003 -0.000141603 0)
(0.999961 -1.39116e-05 0)
(1.00012 1.88393e-05 0)
(1.00019 4.96629e-05 0)
(1.00033 0.000207866 0)
(1.0004 0.000436628 0)
(1.00059 0.00065072 0)
(1.00072 0.000828211 0)
(1.00092 0.000990184 0)
(1.00107 0.00116912 0)
(1.0013 0.00137104 0)
(1.00141 0.00161868 0)
(1.00161 0.00186977 0)
(1.0017 0.00212242 0)
(1.00178 0.00238088 0)
(1.00167 0.00262187 0)
(1.0001 -8.92534e-06 0)
(0.999926 -3.74645e-05 0)
(1.00003 -2.15934e-05 0)
(0.999996 -7.62942e-05 0)
(1.00004 -0.000108722 0)
(0.999998 7.6647e-06 0)
(1.00015 0.000115105 0)
(1.00022 0.000186775 0)
(1.00039 0.00029363 0)
(1.00048 0.0004593 0)
(1.00068 0.000666796 0)
(1.0008 0.000874923 0)
(1.00101 0.00106247 0)
(1.00117 0.00124249 0)
(1.00142 0.00142712 0)
(1.00156 0.00165251 0)
(1.00178 0.00188458 0)
(1.00188 0.00211473 0)
(1.00197 0.00235137 0)
(1.00187 0.00256958 0)
(1.00009 -1.0491e-05 0)
(0.99993 -3.14907e-05 0)
(1.00004 -3.19604e-05 0)
(0.999997 -4.2849e-05 0)
(1.00006 -4.28335e-05 0)
(1.00004 3.74922e-05 0)
(1.00019 0.0001606 0)
(1.00025 0.000282746 0)
(1.00043 0.00039351 0)
(1.00055 0.000522367 0)
(1.00078 0.000687355 0)
(1.0009 0.00089185 0)
(1.00111 0.00109662 0)
(1.00128 0.0012901 0)
(1.00154 0.00146938 0)
(1.00171 0.00167453 0)
(1.00194 0.00188714 0)
(1.00206 0.0020964 0)
(1.00216 0.00230974 0)
(1.00207 0.00250802 0)
(1.00009 -1.01595e-05 0)
(0.99993 -2.32553e-05 0)
(1.00004 -2.8765e-05 0)
(1.00001 -1.82495e-05 0)
(1.00008 2.0344e-05 0)
(1.00007 0.000101126 0)
(1.00024 0.000208543 0)
(1.00031 0.000340015 0)
(1.00049 0.000482792 0)
(1.00062 0.000605759 0)
(1.00086 0.000740915 0)
(1.00101 0.000913046 0)
(1.00123 0.00111437 0)
(1.00139 0.00131687 0)
(1.00167 0.00149548 0)
(1.00186 0.00168741 0)
(1.0021 0.00188406 0)
(1.00224 0.00207446 0)
(1.00235 0.00226433 0)
(1.00226 0.00244205 0)
(1.00009 -6.07345e-06 0)
(0.999933 -1.75839e-05 0)
(1.00005 -7.37783e-06 0)
(1.00002 2.66429e-06 0)
(1.00011 7.10171e-05 0)
(1.00011 0.000176352 0)
(1.00028 0.000270068 0)
(1.00037 0.000392358 0)
(1.00055 0.000540576 0)
(1.00068 0.000683299 0)
(1.00093 0.000808834 0)
(1.00111 0.000953715 0)
(1.00135 0.00112963 0)
(1.00152 0.00132742 0)
(1.00181 0.00150297 0)
(1.00201 0.00168168 0)
(1.00226 0.00186303 0)
(1.00241 0.0020391 0)
(1.00252 0.00220862 0)
(1.00245 0.00236611 0)
(1.00009 -3.2893e-06 0)
(0.999936 -4.19352e-06 0)
(1.00006 1.43307e-05 0)
(1.00004 3.9706e-05 0)
(1.00015 0.000111054 0)
(1.00015 0.000233633 0)
(1.00033 0.000338062 0)
(1.00043 0.000446224 0)
(1.00062 0.000587579 0)
(1.00075 0.000733836 0)
(1.00101 0.0008675 0)
(1.0012 0.00100017 0)
(1.00147 0.00114967 0)
(1.00165 0.0013283 0)
(1.00194 0.00150148 0)
(1.00215 0.00166565 0)
(1.00242 0.00182831 0)
(1.00257 0.00199119 0)
(1.00269 0.00214619 0)
(1.00262 0.00228561 0)
(1.00009 3.87076e-06 0)
(0.999941 7.07395e-06 0)
(1.00007 4.49212e-05 0)
(1.00006 8.12073e-05 0)
(1.00019 0.000154754 0)
(1.0002 0.00027932 0)
(1.00037 0.000399193 0)
(1.00048 0.000504664 0)
(1.00069 0.000634225 0)
(1.00082 0.000774204 0)
(1.00109 0.00090868 0)
(1.00128 0.00104148 0)
(1.00158 0.00117522 0)
(1.00178 0.00132669 0)
(1.00208 0.00149052 0)
(1.00229 0.00164336 0)
(1.00257 0.00178675 0)
(1.00274 0.00193069 0)
(1.00285 0.00207217 0)
(1.00278 0.0021966 0)
(1.00009 9.93803e-06 0)
(0.999945 2.80629e-05 0)
(1.00008 7.32504e-05 0)
(1.00008 0.000128106 0)
(1.00022 0.000201707 0)
(1.00025 0.000324057 0)
(1.00042 0.000448325 0)
(1.00054 0.000559013 0)
(1.00076 0.000677045 0)
(1.0009 0.000812959 0)
(1.00116 0.000939983 0)
(1.00137 0.00106638 0)
(1.00167 0.00119628 0)
(1.0019 0.00132269 0)
(1.00221 0.00146414 0)
(1.00243 0.0016084 0)
(1.00271 0.00173728 0)
(1.00289 0.00186151 0)
(1.00301 0.00198554 0)
(1.00294 0.00209746 0)
(1.00009 1.6491e-05 0)
(0.99995 5.08935e-05 0)
(1.00009 0.000104604 0)
(1.0001 0.000172431 0)
(1.00026 0.00025308 0)
(1.0003 0.000365994 0)
(1.00048 0.000492247 0)
(1.00059 0.000605698 0)
(1.00082 0.000717813 0)
(1.00097 0.000841638 0)
(1.00124 0.000966533 0)
(1.00146 0.00107761 0)
(1.00176 0.0012013 0)
(1.002 0.00131985 0)
(1.00233 0.00143156 0)
(1.00256 0.00156196 0)
(1.00284 0.00167861 0)
(1.00303 0.00178545 0)
(1.00315 0.00189175 0)
(1.00308 0.00198836 0)
(1.00009 2.47673e-05 0)
(0.999955 7.36628e-05 0)
(1.00011 0.000139492 0)
(1.00012 0.000214697 0)
(1.00029 0.000302653 0)
(1.00034 0.00041068 0)
(1.00053 0.000530797 0)
(1.00064 0.000644961 0)
(1.00088 0.000755185 0)
(1.00104 0.000865428 0)
(1.00131 0.000984915 0)
(1.00153 0.0010872 0)
(1.00186 0.00119039 0)
(1.00209 0.0013059 0)
(1.00243 0.00139756 0)
(1.00268 0.00150385 0)
(1.00296 0.00160872 0)
(1.00315 0.0016969 0)
(1.00327 0.00179006 0)
(1.00321 0.00186838 0)
(1.00009 3.20902e-05 0)
(0.999959 9.78562e-05 0)
(1.00012 0.000173917 0)
(1.00014 0.000257159 0)
(1.00032 0.000348737 0)
(1.00039 0.000454503 0)
(1.00058 0.000568766 0)
(1.00069 0.000677625 0)
(1.00093 0.000783814 0)
(1.0011 0.000884237 0)
(1.00138 0.000992238 0)
(1.0016 0.00109069 0)
(1.00193 0.0011756 0)
(1.00217 0.00127539 0)
(1.00251 0.00135906 0)
(1.00278 0.00144007 0)
(1.00306 0.00153076 0)
(1.00325 0.0016008 0)
(1.00338 0.00167965 0)
(1.00332 0.0017426 0)
(1.00009 4.00331e-05 0)
(0.999963 0.000120038 0)
(1.00013 0.00020755 0)
(1.00016 0.000296601 0)
(1.00035 0.000391349 0)
(1.00042 0.000493477 0)
(1.00062 0.000603883 0)
(1.00074 0.000707687 0)
(1.00098 0.000808371 0)
(1.00116 0.000900149 0)
(1.00144 0.000994211 0)
(1.00165 0.00108363 0)
(1.00199 0.00115739 0)
(1.00224 0.00123649 0)
(1.00258 0.0013082 0)
(1.00285 0.00137026 0)
(1.00314 0.00144253 0)
(1.00333 0.00149696 0)
(1.00346 0.00155715 0)
(1.0034 0.00160643 0)
(1.00009 4.7185e-05 0)
(0.999967 0.000140574 0)
(1.00014 0.000237293 0)
(1.00018 0.000332299 0)
(1.00037 0.000429353 0)
(1.00045 0.000529308 0)
(1.00065 0.000634095 0)
(1.00078 0.00073214 0)
(1.00102 0.000827642 0)
(1.00119 0.000910507 0)
(1.00148 0.000991606 0)
(1.00169 0.00106855 0)
(1.00203 0.00112923 0)
(1.00228 0.00119273 0)
(1.00262 0.00124916 0)
(1.0029 0.00129243 0)
(1.00319 0.0013473 0)
(1.00338 0.00138634 0)
(1.00352 0.00142901 0)
(1.00346 0.00146259 0)
(1.00009 5.33398e-05 0)
(0.99997 0.000157467 0)
(1.00015 0.000262756 0)
(1.00019 0.000362124 0)
(1.00039 0.000460985 0)
(1.00048 0.000557012 0)
(1.00068 0.000658143 0)
(1.00081 0.000750733 0)
(1.00105 0.000840665 0)
(1.00122 0.000916213 0)
(1.00151 0.000984273 0)
(1.00172 0.0010509 0)
(1.00206 0.00109637 0)
(1.00231 0.00114119 0)
(1.00264 0.00118662 0)
(1.00292 0.00120661 0)
(1.00321 0.00124218 0)
(1.0034 0.00126429 0)
(1.00354 0.00128872 0)
(1.00347 0.00130731 0)
(1.00009 5.79369e-05 0)
(0.999974 0.000170208 0)
(1.00015 0.000281569 0)
(1.0002 0.000383283 0)
(1.0004 0.000483546 0)
(1.0005 0.000576767 0)
(1.00071 0.000673295 0)
(1.00083 0.000761589 0)
(1.00107 0.000846273 0)
(1.00124 0.000918168 0)
(1.00153 0.000974531 0)
(1.00173 0.00102943 0)
(1.00205 0.00106467 0)
(1.00231 0.0010832 0)
(1.00263 0.00111578 0)
(1.0029 0.0011159 0)
(1.0032 0.00112533 0)
(1.00338 0.00112983 0)
(1.00352 0.00113069 0)
(1.00345 0.00113594 0)
(1.00009 6.04364e-05 0)
(0.999976 0.000177048 0)
(1.00016 0.00029112 0)
(1.00021 0.00039446 0)
(1.00042 0.000494842 0)
(1.00051 0.000586118 0)
(1.00073 0.000677527 0)
(1.00085 0.000760564 0)
(1.00109 0.000840011 0)
(1.00125 0.000911326 0)
(1.00153 0.000964132 0)
(1.00172 0.00100707 0)
(1.00202 0.00104007 0)
(1.00228 0.00103669 0)
(1.00258 0.00104484 0)
(1.00283 0.00102937 0)
(1.00313 0.00100372 0)
(1.0033 0.000983833 0)
(1.00345 0.000953734 0)
(1.00338 0.000938754 0)
(1.00009 6.05558e-05 0)
(0.999979 0.000176551 0)
(1.00016 0.000290735 0)
(1.00022 0.000391367 0)
(1.00043 0.000492099 0)
(1.00053 0.000579546 0)
(1.00074 0.000668772 0)
(1.00087 0.000746542 0)
(1.00111 0.000820447 0)
(1.00126 0.00088514 0)
(1.00152 0.000939855 0)
(1.0017 0.000978025 0)
(1.00197 0.00101775 0)
(1.0022 0.00101998 0)
(1.00249 0.00101382 0)
(1.0027 0.000994908 0)
(1.00298 0.000942809 0)
(1.00315 0.000887852 0)
(1.00329 0.000814075 0)
(1.00323 0.000746753 0)
(1.00009 5.75479e-05 0)
(0.999982 0.000168069 0)
(1.00017 0.000276418 0)
(1.00023 0.000372367 0)
(1.00044 0.000468026 0)
(1.00054 0.000554063 0)
(1.00075 0.000639564 0)
(1.00088 0.000717289 0)
(1.00111 0.000787701 0)
(1.00126 0.000845075 0)
(1.00152 0.000891039 0)
(1.0017 0.000911269 0)
(1.00196 0.000926365 0)
(1.00214 0.000919925 0)
(1.00241 0.00089085 0)
(1.00256 0.000863853 0)
(1.00277 0.000814762 0)
(1.00286 0.000763169 0)
(1.00295 0.000704822 0)
(1.00286 0.000647309 0)
(1.00009 5.20246e-05 0)
(0.999985 0.000150648 0)
(1.00018 0.00024713 0)
(1.00023 0.000332004 0)
(1.00045 0.000416459 0)
(1.00056 0.000492203 0)
(1.00077 0.000569416 0)
(1.0009 0.000639878 0)
(1.00113 0.000709758 0)
(1.00126 0.000767294 0)
(1.00148 0.000820641 0)
(1.00162 0.000848844 0)
(1.00185 0.000862571 0)
(1.002 0.000857242 0)
(1.00225 0.000818236 0)
(1.0024 0.000761623 0)
(1.00262 0.000684434 0)
(1.00274 0.000586008 0)
(1.00285 0.000482732 0)
(1.0028 0.000372783 0)
(1.00009 4.60675e-05 0)
(0.999987 0.000133362 0)
(1.00018 0.000222211 0)
(1.00024 0.000299781 0)
(1.00046 0.00038022 0)
(1.00057 0.000451988 0)
(1.00079 0.000529553 0)
(1.00092 0.000599531 0)
(1.00115 0.000675655 0)
(1.00129 0.000742114 0)
(1.00152 0.000811289 0)
(1.00165 0.00086454 0)
(1.00185 0.000903206 0)
(1.00193 0.000918529 0)
(1.00207 0.00090224 0)
(1.00211 0.000843893 0)
(1.00218 0.00075403 0)
(1.00216 0.000618724 0)
(1.00215 0.000462113 0)
(1.00205 0.000285283 0)
(1.00009 2.13774e-05 0)
(0.999992 6.38111e-05 0)
(1.00019 0.000107576 0)
(1.00026 0.00014757 0)
(1.00048 0.000188559 0)
(1.0006 0.000227756 0)
(1.00083 0.000269188 0)
(1.00097 0.000309219 0)
(1.00121 0.000350464 0)
(1.00135 0.0003878 0)
(1.00156 0.000421836 0)
(1.00167 0.000447902 0)
(1.00184 0.000465041 0)
(1.00188 0.000471302 0)
(1.00195 0.000467369 0)
(1.00191 0.000445931 0)
(1.00187 0.000413391 0)
(1.00174 0.000362209 0)
(1.00163 0.000300512 0)
(1.00148 0.00022925 0)
(0.984442 0.00219323 0)
(0.960205 0.00333283 0)
(0.935764 0.00368393 0)
(0.910934 0.0036484 0)
(0.885723 0.00356327 0)
(0.860134 0.00352668 0)
(0.83418 0.00352049 0)
(0.807824 0.00350907 0)
(0.781067 0.00348581 0)
(0.753829 0.00345195 0)
(0.72616 0.0034065 0)
(0.698034 0.00336403 0)
(0.66938 0.00332077 0)
(0.640207 0.00327068 0)
(0.610573 0.00321976 0)
(0.580458 0.00315534 0)
(0.550009 0.00308912 0)
(0.519125 0.00302101 0)
(0.487985 0.00294387 0)
(0.456534 0.00284921 0)
(0.425132 0.00271058 0)
(0.394013 0.00254335 0)
(0.363499 0.0023404 0)
(0.33425 0.00205965 0)
(0.307034 0.00165784 0)
(0.282895 0.00115022 0)
(0.262759 0.000565011 0)
(0.24723 5.9837e-05 0)
(0.236144 -0.000279543 0)
(0.228451 -0.000445511 0)
(0.222993 -0.000496849 0)
(0.219015 -0.000474215 0)
(0.215938 -0.00044261 0)
(0.213371 -0.000395999 0)
(0.211127 -0.000346384 0)
(0.208987 -0.000292848 0)
(0.206815 -0.000235387 0)
(0.204514 -0.000193599 0)
(0.202055 -0.000154414 0)
(0.199491 -0.000115828 0)
(0.196851 -9.36444e-05 0)
(0.194142 -7.26098e-05 0)
(0.191394 -5.24334e-05 0)
(0.188585 -4.13634e-05 0)
(0.185776 -2.95803e-05 0)
(0.183009 -1.8613e-05 0)
(0.180267 -1.09403e-05 0)
(0.177564 -5.78921e-06 0)
(0.174948 -3.16235e-06 0)
(0.172406 8.83346e-07 0)
(0.169925 8.2237e-06 0)
(0.167506 1.10742e-05 0)
(0.165186 6.91229e-06 0)
(0.162933 1.2524e-05 0)
(0.160773 1.92994e-05 0)
(0.158726 1.31592e-05 0)
(0.156827 1.07809e-05 0)
(0.154963 1.76669e-05 0)
(0.153151 1.90124e-05 0)
(0.151422 1.80883e-05 0)
(0.149843 1.45133e-05 0)
(0.148369 1.11428e-05 0)
(0.146987 1.63434e-05 0)
(0.145586 1.91412e-05 0)
(0.144317 1.17089e-05 0)
(0.143243 7.25558e-06 0)
(0.142279 1.17483e-05 0)
(0.141252 1.42546e-05 0)
(0.140324 8.95239e-06 0)
(0.139531 6.30446e-06 0)
(0.138847 8.38046e-06 0)
(0.13815 7.80658e-06 0)
(0.137563 5.38386e-06 0)
(0.137011 5.4394e-06 0)
(0.136555 4.4885e-06 0)
(0.136111 3.34197e-06 0)
(0.135759 3.7709e-06 0)
(0.135384 3.14098e-06 0)
(0.13512 1.67042e-06 0)
(0.134848 1.7389e-06 0)
(0.134657 1.9739e-06 0)
(0.134425 1.07427e-06 0)
(0.134304 5.79441e-07 0)
(0.13413 8.32634e-07 0)
(0.134048 5.63157e-07 0)
(0.133905 2.37475e-07 0)
(0.133874 1.57183e-07 0)
(0.133761 1.94403e-07 0)
(0.133761 5.13874e-08 0)
(0.133668 -2.25213e-08 0)
(0.133698 -9.74316e-08 0)
(0.133616 -1.32213e-08 0)
(0.133666 -1.67538e-07 0)
(0.133588 -1.44499e-08 0)
(0.133652 -1.12971e-07 0)
(0.133572 7.37672e-09 0)
(0.133643 4.85363e-08 0)
(0.133551 1.12325e-07 0)
(0.133626 7.3503e-07 0)
(0.133451 1.51862e-06 0)
(0.996863 0.00409729 0)
(0.995869 0.00582415 0)
(0.994523 0.00648711 0)
(0.992847 0.00647462 0)
(0.990747 0.00633475 0)
(0.988131 0.00628616 0)
(0.984943 0.00632452 0)
(0.981155 0.00639226 0)
(0.976731 0.0064537 0)
(0.971599 0.00651222 0)
(0.965772 0.00655624 0)
(0.95916 0.00660726 0)
(0.951756 0.00666332 0)
(0.943431 0.0067162 0)
(0.934261 0.00676365 0)
(0.924118 0.00679944 0)
(0.913067 0.00682485 0)
(0.900989 0.00683922 0)
(0.88791 0.00684811 0)
(0.873768 0.00683587 0)
(0.858654 0.00678059 0)
(0.842601 0.00666769 0)
(0.82576 0.00650161 0)
(0.80831 0.00622767 0)
(0.790635 0.00578051 0)
(0.773174 0.00515768 0)
(0.756498 0.00437154 0)
(0.741056 0.00354217 0)
(0.727054 0.00276685 0)
(0.714361 0.00214661 0)
(0.70258 0.00170781 0)
(0.691483 0.00141047 0)
(0.680958 0.00121173 0)
(0.670661 0.00105625 0)
(0.660823 0.00093921 0)
(0.651179 0.00086752 0)
(0.641576 0.000824283 0)
(0.632227 0.000805231 0)
(0.622794 0.000784269 0)
(0.613364 0.000749756 0)
(0.604276 0.000726221 0)
(0.595173 0.000701815 0)
(0.586154 0.000679571 0)
(0.577319 0.000665808 0)
(0.568486 0.000630317 0)
(0.559781 0.000596474 0)
(0.551339 0.000577876 0)
(0.542985 0.000542264 0)
(0.534889 0.000512061 0)
(0.527016 0.000486834 0)
(0.519203 0.000454961 0)
(0.511719 0.00043458 0)
(0.504551 0.00040537 0)
(0.497292 0.000378701 0)
(0.490446 0.000355424 0)
(0.484045 0.000316851 0)
(0.477834 0.000298365 0)
(0.47172 0.000293436 0)
(0.465898 0.000262492 0)
(0.46035 0.000237757 0)
(0.455286 0.000222443 0)
(0.450304 0.000198534 0)
(0.445485 0.000187304 0)
(0.440951 0.000178819 0)
(0.436919 0.000150026 0)
(0.433048 0.000123999 0)
(0.429404 0.000124068 0)
(0.425943 0.00012289 0)
(0.42286 9.87836e-05 0)
(0.419905 8.10602e-05 0)
(0.41729 7.99967e-05 0)
(0.414796 7.22476e-05 0)
(0.412602 5.93553e-05 0)
(0.410495 5.48244e-05 0)
(0.408743 4.76704e-05 0)
(0.406987 3.96782e-05 0)
(0.405542 3.75966e-05 0)
(0.404109 3.29682e-05 0)
(0.402996 2.53357e-05 0)
(0.401831 2.25168e-05 0)
(0.400986 2.11916e-05 0)
(0.400056 1.66333e-05 0)
(0.399435 1.32973e-05 0)
(0.398681 1.26115e-05 0)
(0.398249 1.04972e-05 0)
(0.397646 7.98242e-06 0)
(0.397379 6.37327e-06 0)
(0.3969 5.361e-06 0)
(0.396768 4.01189e-06 0)
(0.396385 2.9738e-06 0)
(0.396365 2.14406e-06 0)
(0.396052 1.83286e-06 0)
(0.39612 9.95595e-07 0)
(0.395852 9.89392e-07 0)
(0.395984 5.05457e-07 0)
(0.395746 6.02168e-07 0)
(0.395912 5.84568e-07 0)
(0.395688 8.77156e-07 0)
(0.395862 1.56228e-06 0)
(0.395599 6.49605e-06 0)
(0.997238 0.00363605 0)
(0.996677 0.00472443 0)
(0.996264 0.00542331 0)
(0.996125 0.00559675 0)
(0.996129 0.00554426 0)
(0.996211 0.0055079 0)
(0.996238 0.00557074 0)
(0.996236 0.00570176 0)
(0.996137 0.00585846 0)
(0.995915 0.00602513 0)
(0.995587 0.00618297 0)
(0.995045 0.00634694 0)
(0.994351 0.00652058 0)
(0.993329 0.00669391 0)
(0.992104 0.00686645 0)
(0.990519 0.00703433 0)
(0.988651 0.00719111 0)
(0.986374 0.0073418 0)
(0.983695 0.00749268 0)
(0.980588 0.00761756 0)
(0.977016 0.00769257 0)
(0.972993 0.00769675 0)
(0.968491 0.00762737 0)
(0.963535 0.00743241 0)
(0.958203 0.0070448 0)
(0.952549 0.00645113 0)
(0.946786 0.00566563 0)
(0.940978 0.00478832 0)
(0.935311 0.00393107 0)
(0.929717 0.00322061 0)
(0.924218 0.00274247 0)
(0.918696 0.00242485 0)
(0.913259 0.00224087 0)
(0.907712 0.00211762 0)
(0.902232 0.00200617 0)
(0.896647 0.00196399 0)
(0.890955 0.00194787 0)
(0.885214 0.00193363 0)
(0.879281 0.00194463 0)
(0.873205 0.00191891 0)
(0.867063 0.00187288 0)
(0.860788 0.00185111 0)
(0.854394 0.0018211 0)
(0.847806 0.00178859 0)
(0.841206 0.00175197 0)
(0.834306 0.00169607 0)
(0.827427 0.00165119 0)
(0.820523 0.00159503 0)
(0.813434 0.0015246 0)
(0.806502 0.00147645 0)
(0.79944 0.00142657 0)
(0.792253 0.00135918 0)
(0.785391 0.00130075 0)
(0.778094 0.00125977 0)
(0.770931 0.00119029 0)
(0.764064 0.00109429 0)
(0.757122 0.00104267 0)
(0.750149 0.00101594 0)
(0.743483 0.000952816 0)
(0.736693 0.000880089 0)
(0.730278 0.000815525 0)
(0.723933 0.000764353 0)
(0.717652 0.000735892 0)
(0.711387 0.000683989 0)
(0.705687 0.00060034 0)
(0.700097 0.000542449 0)
(0.694601 0.000522374 0)
(0.689249 0.000487491 0)
(0.684453 0.000425848 0)
(0.679634 0.000378627 0)
(0.67519 0.000352455 0)
(0.670926 0.000318253 0)
(0.667032 0.000278647 0)
(0.663176 0.000249961 0)
(0.659888 0.000221925 0)
(0.656557 0.000195891 0)
(0.653654 0.000176349 0)
(0.650786 0.000153458 0)
(0.648413 0.000129817 0)
(0.645951 0.000114059 0)
(0.644007 0.00010098 0)
(0.641984 8.49895e-05 0)
(0.640428 7.20934e-05 0)
(0.638717 6.32325e-05 0)
(0.637513 5.30897e-05 0)
(0.636109 4.35307e-05 0)
(0.635211 3.60897e-05 0)
(0.634073 3.00557e-05 0)
(0.633447 2.39204e-05 0)
(0.63254 1.88669e-05 0)
(0.632137 1.43761e-05 0)
(0.631421 1.14366e-05 0)
(0.631203 7.74464e-06 0)
(0.630641 6.33209e-06 0)
(0.630571 3.61139e-06 0)
(0.630142 3.39413e-06 0)
(0.630174 1.57683e-06 0)
(0.629848 2.6579e-06 0)
(0.629944 1.83882e-06 0)
(0.629656 1.14522e-05 0)
(0.99769 0.00345996 0)
(0.99712 0.00438111 0)
(0.99664 0.00516247 0)
(0.996464 0.00559272 0)
(0.996516 0.00571107 0)
(0.996741 0.0057216 0)
(0.996999 0.00576807 0)
(0.997298 0.00587734 0)
(0.997606 0.00602826 0)
(0.997891 0.00620038 0)
(0.998222 0.00636947 0)
(0.998491 0.00654482 0)
(0.998799 0.00672372 0)
(0.998985 0.00690634 0)
(0.999206 0.00708667 0)
(0.999328 0.00727195 0)
(0.999457 0.00744227 0)
(0.999495 0.00761441 0)
(0.999468 0.00778303 0)
(0.999391 0.00792374 0)
(0.999226 0.00801241 0)
(0.999005 0.00802449 0)
(0.998673 0.00795451 0)
(0.998219 0.00775749 0)
(0.997645 0.00737188 0)
(0.996866 0.00680089 0)
(0.99596 0.00604625 0)
(0.994787 0.00520889 0)
(0.993503 0.00438333 0)
(0.991935 0.00368647 0)
(0.990278 0.00320435 0)
(0.988436 0.00288133 0)
(0.986598 0.00270055 0)
(0.984682 0.00258506 0)
(0.982786 0.00248011 0)
(0.980813 0.0024457 0)
(0.978817 0.002422 0)
(0.976777 0.00240999 0)
(0.974678 0.00242137 0)
(0.972439 0.00238611 0)
(0.97017 0.00234478 0)
(0.967732 0.00232006 0)
(0.96526 0.00229986 0)
(0.962615 0.0022825 0)
(0.95995 0.0022493 0)
(0.957005 0.00220872 0)
(0.953991 0.00216773 0)
(0.950895 0.00211674 0)
(0.947583 0.00205412 0)
(0.944231 0.00199806 0)
(0.940837 0.00196064 0)
(0.937194 0.00189577 0)
(0.933725 0.00183117 0)
(0.929878 0.00181363 0)
(0.92606 0.00174375 0)
(0.922232 0.00162833 0)
(0.918256 0.00158539 0)
(0.9141 0.00155924 0)
(0.910123 0.00148158 0)
(0.905833 0.00140475 0)
(0.901769 0.0013286 0)
(0.897559 0.00126117 0)
(0.893381 0.00123483 0)
(0.889082 0.00117786 0)
(0.885048 0.00106225 0)
(0.880865 0.000983605 0)
(0.876745 0.000964638 0)
(0.872569 0.000912224 0)
(0.868729 0.000819529 0)
(0.864697 0.000755136 0)
(0.860913 0.000713392 0)
(0.857145 0.000656357 0)
(0.853642 0.000597651 0)
(0.849982 0.000548207 0)
(0.84678 0.000495276 0)
(0.843438 0.000450509 0)
(0.840467 0.00041511 0)
(0.837414 0.000372063 0)
(0.834772 0.000328581 0)
(0.83196 0.00029561 0)
(0.829616 0.000264284 0)
(0.827163 0.000231025 0)
(0.825146 0.000204286 0)
(0.822965 0.000183066 0)
(0.82125 0.000159369 0)
(0.819338 0.000137086 0)
(0.81789 0.00011752 0)
(0.816258 0.000101066 0)
(0.815098 8.46368e-05 0)
(0.813749 7.15737e-05 0)
(0.812844 5.87105e-05 0)
(0.811741 4.95643e-05 0)
(0.811063 3.84769e-05 0)
(0.810168 3.23395e-05 0)
(0.809701 2.33223e-05 0)
(0.808993 1.96542e-05 0)
(0.808726 1.30731e-05 0)
(0.808169 1.19032e-05 0)
(0.808087 7.89576e-06 0)
(0.807604 1.75757e-05 0)
(0.998032 0.00345074 0)
(0.997456 0.00428414 0)
(0.99694 0.00504468 0)
(0.996672 0.00557662 0)
(0.996679 0.00579861 0)
(0.99688 0.00583923 0)
(0.997169 0.00585203 0)
(0.99749 0.00590662 0)
(0.997837 0.00601676 0)
(0.998159 0.00616556 0)
(0.998536 0.00632726 0)
(0.998874 0.00650118 0)
(0.999267 0.00667909 0)
(0.999573 0.00686107 0)
(0.999949 0.00703789 0)
(1.00027 0.00722304 0)
(1.00066 0.00739458 0)