/*--------------------------------*- C++ -*----------------------------------*\
  =========                 |
  \\      /  F ield         | OpenFOAM: The Open Source CFD Toolbox
   \\    /   O peration     | Website:  https://openfoam.org
    \\  /    A nd           | Version:  10
     \\/     M anipulation  |
\*---------------------------------------------------------------------------*/
FoamFile
{
    format      ascii;
    class       volScalarField;
    location    "0.4";
    object      p;
}
// * * * * * * * * * * * * * * * * * * * * * * * * * * * * * * * * * * * * * //

dimensions      [0 2 -2 0 0 0 0];

internalField   nonuniform List<scalar> 
4800
(
2.24192e-11
4.99368e-06
8.45682e-05
7.13109e-05
0.000114464
0.000369641
0.000546244
0.000483145
0.000582133
0.00076018
0.000769462
0.000735376
0.000790954
0.00092433
0.0010231
0.00116973
0.00141908
0.00185701
0.00248055
0.00310246
3.76223e-06
2.83519e-07
8.48171e-05
6.88896e-05
0.000117893
0.000363865
0.000549866
0.000476364
0.000589508
0.000754006
0.000779315
0.000737767
0.00079992
0.000929564
0.00103176
0.00116068
0.00139166
0.00177257
0.00227734
0.00277265
4.38886e-06
-2.51061e-06
8.57978e-05
6.76864e-05
0.000119074
0.000361504
0.000549586
0.00047452
0.00059255
0.000753237
0.000783644
0.000742481
0.000804941
0.000936145
0.00102851
0.00114119
0.0013303
0.00164822
0.00208726
0.00250704
6.73504e-06
-6.02003e-06
8.63069e-05
6.53242e-05
0.000120246
0.000358798
0.000547526
0.000475914
0.00058921
0.000758404
0.000780461
0.000753831
0.00080585
0.000944636
0.00102357
0.00110839
0.00125733
0.00151987
0.0019007
0.00226655
8.05582e-06
-9.27501e-06
8.62323e-05
6.4124e-05
0.000119713
0.000358041
0.000543928
0.000479907
0.000585098
0.000766259
0.000780915
0.000762102
0.000813181
0.000935008
0.00100741
0.00105043
0.00116741
0.00138633
0.00171433
0.00203644
9.20731e-06
-1.17943e-05
8.49316e-05
6.43972e-05
0.00011741
0.000358853
0.00053761
0.000486543
0.000582058
0.00077062
0.000789658
0.00076597
0.000818016
0.000924019
0.00097272
0.000985479
0.00107045
0.00124791
0.00152827
0.00181438
9.79752e-06
-1.3322e-05
8.20783e-05
6.56759e-05
0.000113404
0.000360305
0.000531867
0.00049044
0.000584209
0.000769523
0.000801192
0.000769794
0.000814238
0.000908023
0.00092774
0.000910685
0.00096771
0.00110678
0.00134026
0.00159506
9.12966e-06
-1.30568e-05
7.7767e-05
6.78853e-05
0.0001084
0.000360575
0.000529831
0.000489863
0.000590159
0.00076748
0.000806155
0.000776113
0.000801467
0.000878804
0.000877546
0.000829067
0.000857527
0.000962754
0.00115231
0.00137838
7.04028e-06
-1.05364e-05
7.21129e-05
6.96273e-05
0.000104678
0.000357552
0.000532301
0.000485469
0.000594903
0.000774494
0.000803314
0.000775628
0.000784855
0.000836203
0.000819066
0.000743945
0.000740773
0.000814785
0.000966483
0.00116556
3.10758e-06
-5.61624e-06
6.65249e-05
6.84626e-05
0.000103504
0.000350402
0.000536263
0.000485825
0.000592358
0.000786852
0.000800492
0.000760716
0.000761524
0.000787669
0.000750957
0.000654157
0.000620673
0.000664527
0.000783064
0.000957444
-2.71927e-06
1.32066e-06
6.27386e-05
6.26138e-05
0.000105346
0.00034064
0.000537544
0.00049301
0.000584679
0.000791679
0.000802993
0.000736016
0.000725236
0.000733421
0.000676666
0.000558845
0.000497613
0.000513661
0.000601542
0.000754315
-1.03241e-05
8.94681e-06
6.31408e-05
5.11864e-05
0.000107027
0.000333142
0.000533042
0.000506797
0.00058077
0.000784262
0.00079929
0.000709339
0.000679233
0.00067225
0.000597551
0.000459491
0.000370809
0.000361479
0.000422664
0.000556214
-1.91633e-05
1.54139e-05
6.86536e-05
3.59772e-05
0.000103774
0.000331127
0.00052274
0.000516069
0.000582322
0.000767628
0.00078254
0.000678426
0.000628687
0.000604753
0.000513421
0.000358392
0.000242601
0.000207647
0.000246295
0.000362199
-2.83219e-05
1.83943e-05
7.90138e-05
2.26908e-05
9.18229e-05
0.000332416
0.000512973
0.000516324
0.000587248
0.000753359
0.000753552
0.000635558
0.00057153
0.000533667
0.000425853
0.000255169
0.000116223
5.57057e-05
7.26292e-05
0.000171914
-3.66803e-05
1.67323e-05
9.17872e-05
1.66694e-05
6.97256e-05
0.000330108
0.000509007
0.000507462
0.000581345
0.000741724
0.000724353
0.000580648
0.000503331
0.000458509
0.000335747
0.000148177
-8.18167e-06
-8.97586e-05
-9.47308e-05
-1.28163e-05
-4.35103e-05
9.7231e-06
0.00010298
2.33471e-05
4.18735e-05
0.000315575
0.000510681
0.000499282
0.000561561
0.000720819
0.000696841
0.000525926
0.000424876
0.000374308
0.000242113
3.81404e-05
-0.000131694
-0.000228326
-0.000252259
-0.000187505
-4.87087e-05
-1.18605e-06
0.000108477
4.10359e-05
1.92704e-05
0.000284792
0.000506948
0.000495913
0.000533252
0.000684108
0.000663843
0.000474169
0.000344367
0.000282525
0.000144606
-7.42879e-05
-0.000256232
-0.000362395
-0.000399568
-0.000348299
-5.27297e-05
-1.34634e-05
0.000105044
6.3132e-05
8.45708e-06
0.000240251
0.00048497
0.000495029
0.000509923
0.000634267
0.000617105
0.000420153
0.000264321
0.000189295
4.6782e-05
-0.000187834
-0.000383441
-0.000493485
-0.000536345
-0.000492883
-5.64278e-05
-2.51435e-05
9.20874e-05
8.15309e-05
1.20734e-05
0.000196697
0.000440935
0.000478025
0.000491212
0.000588183
0.000557331
0.000354617
0.000181354
9.47888e-05
-4.76226e-05
-0.00029544
-0.000511131
-0.000624493
-0.000664065
-0.000621412
-6.09239e-05
-3.55017e-05
7.42385e-05
9.01242e-05
2.54978e-05
0.000163733
0.000380873
0.000434684
0.000461406
0.000550121
0.00050359
0.000279339
8.52845e-05
-5.84083e-06
-0.000140239
-0.000391218
-0.000630434
-0.000755622
-0.000786739
-0.000736259
-6.64679e-05
-4.47765e-05
5.64048e-05
8.72379e-05
3.43481e-05
0.000144164
0.000324511
0.000364358
0.000401227
0.000510803
0.000466125
0.000212571
-2.15419e-05
-0.000124431
-0.000238622
-0.000478102
-0.000734532
-0.000879144
-0.000906253
-0.000841479
-7.31685e-05
-5.43714e-05
3.91892e-05
7.56975e-05
3.26509e-05
0.000128729
0.000279755
0.000288609
0.000305771
0.000439153
0.000439787
0.000174506
-0.000120367
-0.000258476
-0.000355964
-0.000564843
-0.000824215
-0.0009872
-0.00101886
-0.000940893
-8.08007e-05
-6.55867e-05
2.10876e-05
6.18144e-05
1.93436e-05
0.000102714
0.000245874
0.000226497
0.000189694
0.000322337
0.000389261
0.000164359
-0.000180354
-0.000389976
-0.000491837
-0.000664345
-0.000906349
-0.00107979
-0.00111884
-0.00103413
-8.94106e-05
-7.89239e-05
-5.74314e-07
4.61959e-05
-8.43786e-07
6.12477e-05
0.000205752
0.000183163
8.72208e-05
0.000163929
0.00028297
0.000148284
-0.000196884
-0.000481076
-0.000630179
-0.000778948
-0.00099335
-0.00116589
-0.00120832
-0.00111966
-9.94376e-05
-9.38943e-05
-2.76314e-05
2.72089e-05
-2.07982e-05
5.47342e-06
0.000144363
0.00014893
1.36141e-05
5.36794e-06
0.000118958
7.8742e-05
-0.000197495
-0.000520367
-0.00073313
-0.000895294
-0.00108542
-0.00125119
-0.00129709
-0.00120475
-0.000111826
-0.000109769
-5.97358e-05
-2.83865e-08
-4.10083e-05
-5.09745e-05
6.16338e-05
9.50304e-05
-3.33568e-05
-0.000120248
-6.73959e-05
-5.30872e-05
-0.000235817
-0.00052734
-0.000784209
-0.000980978
-0.00117026
-0.00133261
-0.0013907
-0.00130294
-0.000127631
-0.000126826
-9.45661e-05
-3.82049e-05
-6.33479e-05
-0.000102426
-3.56847e-05
1.5161e-05
-8.12854e-05
-0.000208189
-0.000230846
-0.000226925
-0.00033146
-0.000555597
-0.000799467
-0.00101934
-0.00122287
-0.00139683
-0.00148079
-0.0014159
-0.000147451
-0.000146513
-0.00012897
-8.6705e-05
-9.79156e-05
-0.000147618
-0.00012946
-8.99908e-05
-0.000150977
-0.000275388
-0.000356276
-0.0003928
-0.000472979
-0.000629712
-0.000827136
-0.00102562
-0.00123061
-0.00142259
-0.00154404
-0.00153194
-0.000171586
-0.000170387
-0.000164037
-0.00014057
-0.000145995
-0.000194197
-0.000212914
-0.000203575
-0.000245719
-0.000349813
-0.000449085
-0.000525373
-0.00061592
-0.000743079
-0.000892089
-0.00104606
-0.00121562
-0.00140477
-0.00156004
-0.00161599
-0.000199806
-0.000199738
-0.000200813
-0.000196116
-0.000206172
-0.000249946
-0.000289393
-0.000309098
-0.000356603
-0.000442968
-0.000537585
-0.000628037
-0.000733505
-0.000859646
-0.000987749
-0.00110394
-0.00122451
-0.00137388
-0.00153279
-0.00164207
-0.000231741
-0.000234858
-0.000241738
-0.000251555
-0.000274106
-0.000316137
-0.000364595
-0.000407161
-0.000465323
-0.000548705
-0.000635942
-0.000721463
-0.000826793
-0.000955709
-0.0010853
-0.00119136
-0.00127519
-0.00137275
-0.00149915
-0.00161974
-0.000267587
-0.000274948
-0.00028842
-0.00030833
-0.000343187
-0.00039113
-0.000444335
-0.000498835
-0.000567544
-0.000654397
-0.000740987
-0.000820026
-0.000911923
-0.00103318
-0.00116533
-0.00127929
-0.00135572
-0.00141482
-0.00149317
-0.00158611
-0.00030764
-0.000318993
-0.000339903
-0.000367835
-0.000412153
-0.000469317
-0.000528877
-0.000589297
-0.000663314
-0.000753794
-0.000844446
-0.000922702
-0.00100173
-0.00110468
-0.00122939
-0.00134867
-0.00143636
-0.00148634
-0.00152587
-0.00157819
-0.000351737
-0.000366409
-0.000394792
-0.000430239
-0.000481259
-0.000546453
-0.00061431
-0.000680749
-0.000755212
-0.000846047
-0.000940162
-0.00102247
-0.00109586
-0.00118051
-0.00128702
-0.00140137
-0.00149766
-0.00155649
-0.00158491
-0.00160847
-0.000399161
-0.000416537
-0.000451194
-0.000494443
-0.000550641
-0.000621432
-0.000696862
-0.000769984
-0.000845428
-0.000932798
-0.00102729
-0.00111377
-0.00118747
-0.00126043
-0.00134695
-0.00144616
-0.00154068
-0.00160954
-0.00164611
-0.00166266
-0.000448588
-0.000468291
-0.000507732
-0.00055829
-0.000619306
-0.00069372
-0.000774618
-0.000853926
-0.000931795
-0.0010157
-0.00110688
-0.00119502
-0.00127134
-0.0013394
-0.00141124
-0.00149242
-0.00157628
-0.00164822
-0.00169543
-0.0017199
-0.00049819
-0.000520002
-0.000562872
-0.000619401
-0.000685222
-0.000762153
-0.000846468
-0.000930598
-0.00101155
-0.00109341
-0.00117975
-0.0012662
-0.00134439
-0.00141239
-0.00147684
-0.00154503
-0.00161696
-0.00168436
-0.00173704
-0.00177173
-0.000545503
-0.000569248
-0.000614545
-0.000675322
-0.000745589
-0.000824612
-0.000910686
-0.000998216
-0.00108246
-0.0011639
-0.0012459
-0.00132796
-0.0014049
-0.0014729
-0.00153439
-0.00159544
-0.00165926
-0.00172343
-0.00178165
-0.00182848
-0.000588291
-0.000613038
-0.000659433
-0.000722196
-0.00079543
-0.000875999
-0.000962412
-0.00105128
-0.00113815
-0.00122099
-0.00130098
-0.00137916
-0.0014538
-0.00152179
-0.00158217
-0.00163757
-0.00169182
-0.0017469
-0.00180161
-0.00185299
-0.000627858
-0.000655586
-0.000704857
-0.000770628
-0.00084762
-0.000931596
-0.00101996
-0.00111005
-0.0011986
-0.00128298
-0.00136262
-0.00143829
-0.00151011
-0.00157695
-0.00163768
-0.00169284
-0.0017446
-0.00179536
-0.0018463
-0.00189722
0.00379562
0.00381201
0.00354542
0.0033334
0.0031643
0.00291258
0.00254423
0.00213052
0.00173565
0.00136999
0.00100083
0.000623524
0.000224833
-0.000184005
-0.000580553
-0.000957092
-0.00128002
-0.00162304
-0.00205637
-0.00257681
-0.00323528
-0.00400887
-0.00478039
-0.00548792
-0.00617428
-0.00689143
-0.00757398
-0.00808659
-0.00827847
-0.00804081
-0.00760957
-0.00733169
-0.0071648
-0.00700575
-0.00679092
-0.00638067
-0.00606214
-0.00614484
-0.00630497
-0.00629891
-0.0062804
-0.00629775
-0.00633786
-0.00644898
-0.0065778
-0.00664782
-0.00671523
-0.00682837
-0.00689481
-0.00689799
-0.00694508
-0.00699938
-0.00700629
-0.00705804
-0.00713942
-0.0071536
-0.00717924
-0.00725454
-0.00726634
-0.00723197
-0.00727456
-0.00735142
-0.00736486
-0.00735539
-0.00738598
-0.00743053
-0.00745223
-0.00747069
-0.00750164
-0.00754095
-0.00757898
-0.00761925
-0.00766366
-0.00770999
-0.00775892
-0.00780806
-0.00786011
-0.0079131
-0.00796803
-0.00802589
-0.00808438
-0.00814728
-0.00821039
-0.00827679
-0.00834538
-0.0084138
-0.00848714
-0.00855825
-0.0086334
-0.00870969
-0.0087841
-0.0088654
-0.00894119
-0.0090222
-0.00910343
-0.00918107
-0.00926348
-0.00934198
-0.00941497
-0.00949017
0.00322465
0.00344733
0.00343215
0.00331259
0.0031486
0.00288412
0.00251024
0.00209822
0.00170704
0.00134392
0.000975468
0.000599446
0.000201277
-0.000207501
-0.000602353
-0.000978572
-0.00129995
-0.00163988
-0.00207241
-0.00258988
-0.00324146
-0.00401032
-0.00477545
-0.00546935
-0.0061411
-0.00685168
-0.00753184
-0.00804769
-0.00824823
-0.00801682
-0.00759196
-0.00732091
-0.0071558
-0.00699702
-0.00678473
-0.00637403
-0.00605411
-0.00614038
-0.00630123
-0.0062948
-0.0062777
-0.00629531
-0.00633487
-0.00644651
-0.00657552
-0.00664511
-0.00671271
-0.00682648
-0.006893
-0.00689625
-0.00694389
-0.00699853
-0.00700531
-0.0070574
-0.00713919
-0.00715302
-0.00717871
-0.00725465
-0.00726646
-0.00723168
-0.00727446
-0.00735165
-0.00736492
-0.00735535
-0.00738607
-0.0074308
-0.00745238
-0.0074708
-0.00750176
-0.00754105
-0.00757905
-0.00761929
-0.00766369
-0.00771001
-0.00775894
-0.00780806
-0.0078601
-0.00791309
-0.00796801
-0.00802588
-0.00808437
-0.00814728
-0.00821039
-0.00827679
-0.00834538
-0.0084138
-0.00848714
-0.00855825
-0.0086334
-0.00870969
-0.00878409
-0.00886541
-0.00894118
-0.00902221
-0.00910343
-0.00918106
-0.00926348
-0.00934199
-0.00941499
-0.00949019
0.00291479
0.00323573
0.00336745
0.00333485
0.00317917
0.00289161
0.00249612
0.00207315
0.00167963
0.00131615
0.000946791
0.000570491
0.000173068
-0.000237082
-0.000631974
-0.00100613
-0.00132675
-0.00166415
-0.00209544
-0.00261221
-0.00325577
-0.00401056
-0.00475746
-0.0054299
-0.0060797
-0.006769
-0.00742949
-0.0079338
-0.00814351
-0.00794521
-0.00755337
-0.00729961
-0.00713958
-0.00697952
-0.00676996
-0.00637163
-0.00606128
-0.00614589
-0.00630259
-0.00629416
-0.00627721
-0.00629622
-0.00633584
-0.0064457
-0.00657355
-0.00664295
-0.00670996
-0.00682324
-0.00688991
-0.00689328
-0.00694119
-0.0069963
-0.00700321
-0.00705519
-0.00713712
-0.00715104
-0.00717661
-0.00725265
-0.00726502
-0.00723074
-0.00727356
-0.00735058
-0.00736394
-0.00735474
-0.00738565
-0.00743039
-0.00745205
-0.0074706
-0.00750165
-0.00754099
-0.00757901
-0.00761929
-0.00766371
-0.00771004
-0.00775897
-0.0078081
-0.00786016
-0.00791315
-0.00796807
-0.00802592
-0.0080844
-0.0081473
-0.0082104
-0.0082768
-0.00834539
-0.0084138
-0.00848715
-0.00855824
-0.0086334
-0.0087097
-0.00878409
-0.00886542
-0.00894119
-0.00902221
-0.00910345
-0.00918107
-0.0092635
-0.00934201
-0.00941517
-0.0094904
0.00264096
0.00300678
0.00323606
0.00328605
0.00316687
0.00288122
0.00247123
0.00203481
0.00163681
0.00127351
0.00090528
0.000530259
0.000134319
-0.000276876
-0.000670537
-0.00104294
-0.00136436
-0.00169679
-0.00212518
-0.00264149
-0.00327366
-0.0040046
-0.00472867
-0.00538297
-0.00600652
-0.00666692
-0.00730554
-0.00779605
-0.00801734
-0.00785718
-0.00750252
-0.0072713
-0.00711964
-0.00695532
-0.00674866
-0.00636829
-0.00606937
-0.0061489
-0.00629695
-0.00628518
-0.00627139
-0.0062957
-0.00633613
-0.00644299
-0.0065689
-0.00663748
-0.00670326
-0.00681518
-0.00688141
-0.00688563
-0.00693486
-0.00699106
-0.0069985
-0.0070504
-0.00713251
-0.0071469
-0.00717218
-0.00724795
-0.00726166
-0.00722895
-0.00727166
-0.00734799
-0.00736176
-0.00735343
-0.00738461
-0.00742932
-0.00745125
-0.00747021
-0.00750146
-0.00754084
-0.00757888
-0.00761919
-0.00766362
-0.00770997
-0.00775891
-0.00780807
-0.00786014
-0.00791316
-0.00796809
-0.00802597
-0.00808445
-0.00814735
-0.00821044
-0.00827683
-0.00834541
-0.00841381
-0.00848716
-0.00855825
-0.0086334
-0.0087097
-0.00878409
-0.00886543
-0.0089412
-0.00902223
-0.00910348
-0.0091811
-0.00926354
-0.00934204
-0.00941548
-0.00949077
0.00238116
0.00277103
0.00307441
0.00320036
0.00313341
0.0028681
0.00245526
0.00200486
0.0015966
0.00122968
0.000861777
0.000488017
9.23158e-05
-0.000318482
-0.00070892
-0.00108102
-0.00140401
-0.00172865
-0.00215096
-0.00266751
-0.00328572
-0.00398885
-0.00469293
-0.00532983
-0.0059219
-0.00655122
-0.00717104
-0.00765123
-0.00788193
-0.00775718
-0.0074424
-0.00723773
-0.00709608
-0.00692832
-0.00672403
-0.0063624
-0.00607601
-0.00614948
-0.00628887
-0.00627548
-0.00626574
-0.00629578
-0.00633692
-0.00643974
-0.00656274
-0.00663057
-0.00669498
-0.00680483
-0.00687091
-0.00687686
-0.00692733
-0.00698441
-0.00699261
-0.00704414
-0.00712618
-0.00714142
-0.00716618
-0.00724112
-0.00725667
-0.00722631
-0.00726866
-0.00734383
-0.00735832
-0.00735133
-0.00738279
-0.0074274
-0.00744975
-0.00746931
-0.00750084
-0.00754031
-0.00757845
-0.00761887
-0.00766336
-0.00770975
-0.00775874
-0.00780794
-0.00786007
-0.00791314
-0.00796813
-0.00802604
-0.00808454
-0.00814744
-0.00821053
-0.0082769
-0.00834547
-0.00841385
-0.00848719
-0.00855828
-0.00863342
-0.00870972
-0.00878411
-0.00886544
-0.00894123
-0.00902225
-0.00910352
-0.00918113
-0.00926361
-0.00934207
-0.00941587
-0.00949127
0.00213357
0.00253674
0.00289921
0.00309268
0.00308032
0.0028478
0.00244517
0.00198398
0.00156055
0.00118513
0.000816806
0.000443797
4.77757e-05
-0.000362953
-0.00075018
-0.00111966
-0.00144499
-0.00176127
-0.00217301
-0.0026889
-0.00329422
-0.00397205
-0.00465593
-0.00527224
-0.00583234
-0.00643063
-0.00703398
-0.00750606
-0.00774304
-0.00765081
-0.00737607
-0.00719898
-0.00707005
-0.00690102
-0.00669844
-0.00635518
-0.00608176
-0.00614937
-0.00628116
-0.00626668
-0.00625986
-0.00629512
-0.00633725
-0.00643563
-0.00655565
-0.00662318
-0.00668607
-0.00679352
-0.00685952
-0.00686701
-0.00691845
-0.00697669
-0.00698598
-0.00703697
-0.00711886
-0.00713509
-0.00715918
-0.00723316
-0.00725092
-0.00722323
-0.00726502
-0.00733888
-0.0073543
-0.00734885
-0.00738056
-0.00742503
-0.00744791
-0.00746817
-0.00750005
-0.00753963
-0.00757791
-0.00761846
-0.00766302
-0.00770945
-0.00775849
-0.00780775
-0.00785995
-0.00791309
-0.00796813
-0.0080261
-0.00808463
-0.00814754
-0.00821063
-0.00827699
-0.00834554
-0.00841391
-0.00848722
-0.0085583
-0.00863343
-0.00870973
-0.00878412
-0.00886546
-0.00894127
-0.00902227
-0.00910358
-0.00918116
-0.0092637
-0.0093421
-0.00941626
-0.00949184
0.00189549
0.00230582
0.00271533
0.00296938
0.00300926
0.00281518
0.00243199
0.00196853
0.00152936
0.00113973
0.000768619
0.000395758
-2.59457e-07
-0.000412708
-0.000797676
-0.00115905
-0.00148569
-0.00179733
-0.00219471
-0.00270578
-0.00330366
-0.00395918
-0.00461544
-0.00520737
-0.00573924
-0.00630921
-0.0068968
-0.00735962
-0.00760086
-0.00753897
-0.00730219
-0.00715374
-0.00704193
-0.00687414
-0.00667255
-0.00634691
-0.00608653
-0.00614824
-0.00627248
-0.00625662
-0.00625222
-0.00629321
-0.0063371
-0.00643121
-0.00654843
-0.00661564
-0.00667648
-0.00678111
-0.00684687
-0.00685598
-0.00690865
-0.00696829
-0.00697866
-0.00702902
-0.00711078
-0.00712813
-0.00715161
-0.00722464
-0.00724471
-0.00721976
-0.00726094
-0.00733349
-0.00734993
-0.0073461
-0.00737806
-0.00742241
-0.00744586
-0.0074669
-0.00749914
-0.00753885
-0.00757726
-0.00761794
-0.00766259
-0.00770906
-0.00775816
-0.0078075
-0.00785978
-0.00791301
-0.00796812
-0.00802614
-0.00808471
-0.00814764
-0.00821074
-0.00827708
-0.00834563
-0.00841398
-0.00848727
-0.00855835
-0.00863347
-0.00870976
-0.00878415
-0.00886547
-0.00894132
-0.00902229
-0.00910366
-0.0091812
-0.00926381
-0.00934214
-0.00941664
-0.00949246
0.00166523
0.00207931
0.00252635
0.00283476
0.00292279
0.00276775
0.00240792
0.00195128
0.00150182
0.00109398
0.000715557
0.000342871
-5.18266e-05
-0.000465857
-0.000851083
-0.00120177
-0.00152559
-0.00183632
-0.00221816
-0.00271909
-0.0033126
-0.00394562
-0.00456651
-0.00513408
-0.00564649
-0.00619143
-0.00675889
-0.00721034
-0.00745608
-0.00742219
-0.00722023
-0.00710115
-0.00701011
-0.00684607
-0.00664525
-0.0063366
-0.00608935
-0.00614476
-0.00626136
-0.00624518
-0.00624423
-0.0062915
-0.00633728
-0.0064266
-0.00654028
-0.00660681
-0.00666553
-0.00676735
-0.00683324
-0.00684435
-0.00689824
-0.00695922
-0.00697081
-0.00702055
-0.00710212
-0.00712067
-0.0071436
-0.00721563
-0.00723802
-0.00721592
-0.00725653
-0.00732773
-0.00734523
-0.00734309
-0.00737534
-0.00741959
-0.00744366
-0.0074655
-0.00749811
-0.00753794
-0.00757651
-0.00761735
-0.0076621
-0.00770865
-0.00775781
-0.00780724
-0.0078596
-0.00791291
-0.0079681
-0.00802618
-0.0080848
-0.00814775
-0.00821086
-0.00827718
-0.00834572
-0.00841404
-0.00848732
-0.00855838
-0.00863349
-0.00870977
-0.00878418
-0.00886548
-0.00894138
-0.00902231
-0.00910374
-0.00918124
-0.00926394
-0.00934219
-0.009417
-0.00949312
0.00144103
0.00185759
0.00233434
0.00269082
0.00282198
0.00270293
0.00236923
0.00192572
0.00147497
0.0010508
0.000659356
0.000284464
-0.00010599
-0.000519273
-0.000908914
-0.00125107
-0.00156544
-0.00187317
-0.00224217
-0.00273054
-0.00331666
-0.00392703
-0.00451276
-0.00505973
-0.00555861
-0.0060761
-0.00661743
-0.00705692
-0.00730785
-0.00729944
-0.00713002
-0.0070402
-0.00697224
-0.00681559
-0.00661719
-0.0063253
-0.00609073
-0.00613952
-0.0062492
-0.0062339
-0.00623612
-0.00628896
-0.00633633
-0.0064201
-0.00653014
-0.00659705
-0.00665419
-0.00675318
-0.00681935
-0.00683239
-0.00688715
-0.00694951
-0.00696248
-0.00701141
-0.00709266
-0.00711264
-0.00713514
-0.00720603
-0.0072308
-0.00721174
-0.00725177
-0.00732154
-0.00734018
-0.00733985
-0.00737241
-0.00741655
-0.00744127
-0.00746393
-0.00749695
-0.00753694
-0.00757569
-0.00761672
-0.00766158
-0.00770819
-0.00775742
-0.00780693
-0.00785939
-0.00791279
-0.00796807
-0.00802622
-0.00808489
-0.00814785
-0.00821097
-0.00827728
-0.0083458
-0.00841411
-0.00848738
-0.00855842
-0.00863353
-0.0087098
-0.00878423
-0.0088655
-0.00894145
-0.00902233
-0.00910384
-0.00918129
-0.00926407
-0.00934225
-0.00941732
-0.0094938
0.00122227
0.00164062
0.00213954
0.00253772
0.00270881
0.00262136
0.00231511
0.00188798
0.00144366
0.00101163
0.000602746
0.00022044
-0.000163137
-0.000572015
-0.000967897
-0.00130742
-0.00160769
-0.00190588
-0.00226616
-0.00274263
-0.00331538
-0.00390348
-0.00446018
-0.00498892
-0.00547083
-0.00595554
-0.00646943
-0.0069002
-0.00715748
-0.0071727
-0.00703376
-0.00697135
-0.00692807
-0.00678354
-0.00658919
-0.00631278
-0.00609054
-0.00613295
-0.00623582
-0.00622088
-0.0062253
-0.00628433
-0.0063346
-0.00641303
-0.00651983
-0.00658787
-0.006643
-0.0067382
-0.00680442
-0.00681939
-0.00687498
-0.00693889
-0.00695343
-0.00700153
-0.00708256
-0.00710417
-0.00712616
-0.0071958
-0.00722308
-0.00720723
-0.00724662
-0.0073149
-0.00733477
-0.00733636
-0.00736923
-0.00741324
-0.00743864
-0.0074622
-0.00749567
-0.00753584
-0.00757479
-0.007616
-0.00766097
-0.00770767
-0.00775699
-0.0078066
-0.00785916
-0.00791266
-0.00796803
-0.00802624
-0.00808497
-0.00814795
-0.00821109
-0.00827739
-0.00834591
-0.00841419
-0.00848744
-0.00855846
-0.00863356
-0.00870981
-0.00878427
-0.00886551
-0.00894152
-0.00902236
-0.00910394
-0.00918134
-0.0092642
-0.00934232
-0.00941762
-0.00949451
0.00101028
0.00142942
0.00194235
0.0023745
0.00258514
0.00252592
0.0022459
0.00183671
0.00140264
0.000972905
0.000548828
0.000154367
-0.000225273
-0.00062606
-0.00102476
-0.00136816
-0.00165595
-0.00193768
-0.00228779
-0.00275324
-0.00331068
-0.00387777
-0.00440958
-0.00491764
-0.00537544
-0.00582762
-0.00632013
-0.00674652
-0.00700942
-0.00704432
-0.00693085
-0.00689313
-0.00687672
-0.00674803
-0.00655862
-0.00629777
-0.00608926
-0.00612517
-0.00622023
-0.00620571
-0.00621301
-0.00627958
-0.00633398
-0.00640629
-0.00650832
-0.00657715
-0.00663026
-0.00672158
-0.00678831
-0.00680574
-0.00686216
-0.00692764
-0.00694391
-0.00699113
-0.00707177
-0.00709498
-0.00711652
-0.00718493
-0.00721484
-0.00720226
-0.00724097
-0.00730775
-0.00732898
-0.00733256
-0.00736574
-0.00740965
-0.00743581
-0.00746033
-0.00749425
-0.0075346
-0.00757377
-0.0076152
-0.00766031
-0.0077071
-0.00775652
-0.00780623
-0.00785889
-0.0079125
-0.00796797
-0.00802626
-0.00808505
-0.00814806
-0.00821121
-0.00827749
-0.008346
-0.00841426
-0.00848749
-0.0085585
-0.00863361
-0.00870983
-0.00878433
-0.00886553
-0.0089416
-0.00902239
-0.00910406
-0.0091814
-0.00926433
-0.0093424
-0.00941789
-0.00949524
0.000806478
0.00122551
0.00174444
0.00220052
0.00244963
0.00241923
0.00216222
0.0017721
0.00134883
0.000927942
0.000498383
8.97809e-05
-0.000293689
-0.000685235
-0.00107825
-0.00142821
-0.00171058
-0.00197146
-0.00230504
-0.0027587
-0.00330551
-0.00385536
-0.00435718
-0.00483743
-0.00527368
-0.00570223
-0.00617696
-0.00659594
-0.00686077
-0.00691086
-0.00681909
-0.00680505
-0.00681734
-0.00670751
-0.00652534
-0.00628197
-0.00608828
-0.00611688
-0.00620335
-0.00618984
-0.00619957
-0.00627291
-0.00633189
-0.00639774
-0.0064943
-0.00656493
-0.00661743
-0.00670498
-0.00677194
-0.00679155
-0.00684835
-0.00691533
-0.00693364
-0.00697992
-0.00705998
-0.00708498
-0.00710628
-0.00717343
-0.00720595
-0.00719676
-0.00723484
-0.00730013
-0.00732278
-0.00732846
-0.00736199
-0.00740581
-0.00743277
-0.00745827
-0.00749266
-0.00753323
-0.00757265
-0.00761432
-0.00765958
-0.00770647
-0.00775598
-0.00780581
-0.0078586
-0.00791232
-0.00796789
-0.00802626
-0.00808512
-0.00814815
-0.00821133
-0.0082776
-0.00834611
-0.00841435
-0.00848757
-0.00855854
-0.00863366
-0.00870985
-0.00878439
-0.00886554
-0.0089417
-0.00902243
-0.00910418
-0.00918148
-0.00926446
-0.0093425
-0.00941815
-0.00949597
0.000609568
0.00102921
0.00154879
0.00201741
0.00229938
0.00230149
0.0020658
0.00169491
0.00128214
0.000871746
0.000447218
2.79094e-05
-0.000364862
-0.00075077
-0.00113075
-0.0014827
-0.00176692
-0.00200971
-0.00232199
-0.00275903
-0.00329919
-0.00383839
-0.00430011
-0.00474433
-0.00517306
-0.00558789
-0.00603679
-0.00644041
-0.00670554
-0.00677303
-0.00670399
-0.00670984
-0.00674959
-0.00666297
-0.006491
-0.00626481
-0.00608592
-0.00610728
-0.00618481
-0.00617169
-0.00618253
-0.00626238
-0.00632814
-0.00638948
-0.00648079
-0.006553
-0.00660426
-0.00668711
-0.00675393
-0.00677582
-0.00683319
-0.0069022
-0.00692291
-0.00696795
-0.00704716
-0.00707422
-0.00709545
-0.00716124
-0.00719644
-0.00719083
-0.00722827
-0.00729199
-0.00731615
-0.00732405
-0.00735795
-0.00740168
-0.00742946
-0.00745599
-0.0074909
-0.00753171
-0.0075714
-0.00761331
-0.00765874
-0.00770575
-0.0077554
-0.00780536
-0.00785827
-0.0079121
-0.0079678
-0.00802626
-0.00808519
-0.00814825
-0.00821145
-0.00827771
-0.0083462
-0.00841441
-0.00848762
-0.00855857
-0.00863371
-0.00870987
-0.00878446
-0.00886556
-0.0089418
-0.00902248
-0.00910431
-0.00918158
-0.00926458
-0.00934262
-0.0094184
-0.00949671
0.000417037
0.000839105
0.00135855
0.00183057
0.00213413
0.00216998
0.00195711
0.00160445
0.00120337
0.000802672
0.000389304
-3.27213e-05
-0.000433773
-0.000819714
-0.00118743
-0.0015309
-0.00181905
-0.00205461
-0.002343
-0.00275566
-0.00328833
-0.00382239
-0.00424245
-0.0046443
-0.00507401
-0.0054821
-0.00589572
-0.00627653
-0.00654545
-0.00663682
-0.00659089
-0.00660853
-0.00667172
-0.0066129
-0.00645351
-0.00624265
-0.00607945
-0.00609679
-0.00616586
-0.00615195
-0.00616337
-0.00625028
-0.00632422
-0.00638165
-0.00646651
-0.00653887
-0.00658842
-0.00666714
-0.0067351
-0.0067599
-0.00681752
-0.00688828
-0.00691132
-0.00695491
-0.00703329
-0.00706275
-0.00708409
-0.00714839
-0.00718629
-0.00718439
-0.00722116
-0.0072833
-0.00730908
-0.0073193
-0.00735356
-0.00739718
-0.00742584
-0.00745347
-0.00748893
-0.00752999
-0.00756999
-0.00761221
-0.00765783
-0.00770498
-0.00775476
-0.00780484
-0.00785789
-0.00791186
-0.00796768
-0.00802623
-0.00808524
-0.00814833
-0.00821156
-0.00827781
-0.00834632
-0.00841451
-0.00848771
-0.00855865
-0.00863377
-0.0087099
-0.00878453
-0.00886559
-0.0089419
-0.00902255
-0.00910443
-0.00918169
-0.00926469
-0.00934275
-0.00941864
-0.00949745
0.000227407
0.000651866
0.00117319
0.00164511
0.0019581
0.00202181
0.00183298
0.0014985
0.0011134
0.000723385
0.000322688
-9.57082e-05
-0.000499093
-0.000887388
-0.00125176
-0.0015783
-0.00186469
-0.00210302
-0.00236673
-0.00275082
-0.00327122
-0.00380009
-0.00419276
-0.00454944
-0.00496617
-0.00537354
-0.0057582
-0.00611229
-0.00638547
-0.00650253
-0.00647748
-0.00650093
-0.00658246
-0.00655291
-0.0064106
-0.00621677
-0.00607121
-0.00608711
-0.00614803
-0.00613205
-0.00614252
-0.00623495
-0.00631686
-0.00637077
-0.00645013
-0.0065243
-0.00657259
-0.00664659
-0.00671579
-0.00674352
-0.00680039
-0.00687258
-0.00689876
-0.00694129
-0.00701861
-0.00705049
-0.00707203
-0.0071348
-0.00717544
-0.00717736
-0.00721347
-0.007274
-0.00730149
-0.0073141
-0.00734874
-0.0073923
-0.00742193
-0.00745073
-0.00748676
-0.00752812
-0.00756847
-0.00761098
-0.0076568
-0.0077041
-0.00775403
-0.00780427
-0.00785748
-0.00791158
-0.00796754
-0.00802617
-0.00808529
-0.00814842
-0.00821168
-0.00827791
-0.00834641
-0.00841456
-0.00848777
-0.00855868
-0.00863382
-0.00870992
-0.00878459
-0.00886562
-0.00894201
-0.00902263
-0.00910455
-0.00918183
-0.0092648
-0.00934289
-0.00941888
-0.00949817
4.2919e-05
0.000465833
0.00098918
0.00146238
0.00177806
0.00185764
0.00169
0.00137433
0.00101118
0.000637431
0.000248332
-0.000164917
-0.000565158
-0.000952273
-0.00131979
-0.0016303
-0.0019052
-0.0021462
-0.0023901
-0.00274737
-0.0032499
-0.00377063
-0.00415521
-0.00446788
-0.00484138
-0.00525115
-0.00563384
-0.00595995
-0.006223
-0.00636177
-0.00635955
-0.00639042
-0.00648535
-0.00648291
-0.00636361
-0.00619045
-0.00606113
-0.00607505
-0.00612888
-0.00611126
-0.00611875
-0.00621469
-0.0063058
-0.00635863
-0.00643396
-0.00651112
-0.00655681
-0.00662319
-0.0066937
-0.0067263
-0.00678259
-0.00685578
-0.0068856
-0.00692707
-0.00700275
-0.0070371
-0.00705928
-0.00712054
-0.0071638
-0.00716962
-0.00720512
-0.00726403
-0.00729334
-0.00730849
-0.00734359
-0.00738712
-0.00741776
-0.00744774
-0.00748436
-0.00752602
-0.00756672
-0.00760958
-0.00765564
-0.00770313
-0.00775324
-0.00780364
-0.00785701
-0.00791125
-0.00796736
-0.0080261
-0.00808531
-0.00814842
-0.00821178
-0.00827801
-0.00834652
-0.00841465
-0.00848785
-0.00855873
-0.00863391
-0.00870995
-0.00878468
-0.00886567
-0.00894211
-0.00902274
-0.00910467
-0.00918199
-0.0092649
-0.00934303
-0.00941913
-0.00949888
-0.000131782
0.000282694
0.000803502
0.00127881
0.00159774
0.00168253
0.00152938
0.00123052
0.000892612
0.000543976
0.000167317
-0.00024013
-0.000636433
-0.00101627
-0.00138338
-0.00168781
-0.00194553
-0.00217992
-0.00241255
-0.00274707
-0.00322775
-0.00373899
-0.00412254
-0.00439455
-0.00470724
-0.00511581
-0.00552275
-0.00582562
-0.00605556
-0.00620777
-0.00623779
-0.00628185
-0.00638652
-0.00640597
-0.00630935
-0.0061584
-0.00604595
-0.0060591
-0.0061081
-0.00609095
-0.00609473
-0.00619183
-0.00629241
-0.00634508
-0.00641529
-0.00649588
-0.00654048
-0.00659841
-0.00666998
-0.00670884
-0.0067644
-0.00683741
-0.00687099
-0.00691192
-0.00698589
-0.00702282
-0.00704579
-0.00710537