/*--------------------------------*- C++ -*----------------------------------*\
  =========                 |
  \\      /  F ield         | OpenFOAM: The Open Source CFD Toolbox
   \\    /   O peration     | Website:  https://openfoam.org
    \\  /    A nd           | Version:  10
     \\/     M anipulation  |
\*---------------------------------------------------------------------------*/
FoamFile
{
    format      ascii;
    class       surfaceScalarField;
    location    "0.4";
    object      phi;
}
// * * * * * * * * * * * * * * * * * * * * * * * * * * * * * * * * * * * * * //

dimensions      [0 3 -1 0 0 0 0];

internalField   nonuniform List<scalar> 
9440
(
3.88364e-06
2.69327e-08
3.87381e-06
-5.63943e-08
3.87343e-06
-3.48284e-08
3.87456e-06
1.81228e-08
3.88186e-06
7.31795e-08
3.87922e-06
9.91257e-09
3.87914e-06
1.67532e-08
3.87356e-06
-4.32763e-08
3.87271e-06
6.01504e-09
3.87164e-06
-1.10009e-08
3.87357e-06
2.56235e-08
3.87496e-06
-4.94659e-09
3.87628e-06
1.67363e-08
3.87834e-06
-1.19384e-08
3.87893e-06
7.88972e-10
3.87971e-06
-1.68016e-08
3.87764e-06
1.13395e-09
3.87206e-06
-7.5196e-09
3.85792e-06
2.19602e-08
3.1536e-08
3.83768e-06
4.18534e-06
2.74487e-08
4.18343e-06
-5.44774e-08
4.1775e-06
-2.88991e-08
4.18384e-06
1.17816e-08
4.18622e-06
7.07967e-08
4.18766e-06
8.47072e-09
4.18539e-06
1.90305e-08
4.18094e-06
-3.88285e-08
4.1803e-06
6.65122e-09
4.17761e-06
-8.30419e-09
4.18202e-06
2.12062e-08
4.1786e-06
-1.52168e-09
4.18299e-06
1.23476e-08
4.17958e-06
-8.52936e-09
4.18282e-06
-2.45607e-09
4.17878e-06
-1.27635e-08
4.17766e-06
2.26326e-09
4.16747e-06
2.66445e-09
4.16268e-06
2.67549e-08
3.86515e-08
4.15556e-06
4.5195e-06
2.80116e-08
4.51809e-06
-5.30642e-08
4.5137e-06
-2.45091e-08
4.51604e-06
9.44239e-09
4.52009e-06
6.67449e-08
4.51952e-06
9.04207e-09
4.52076e-06
1.77855e-08
4.51378e-06
-3.18434e-08
4.51731e-06
3.11554e-09
4.51077e-06
-1.75803e-09
4.51897e-06
1.29965e-08
4.5118e-06
5.65245e-09
4.5195e-06
4.65263e-09
4.51263e-06
-1.66618e-09
4.51822e-06
-8.04364e-09
4.51051e-06
-5.05109e-09
4.51046e-06
2.31348e-09
4.50078e-06
1.23388e-08
4.49837e-06
2.91683e-08
4.39045e-08
4.49312e-06
4.88202e-06
2.69402e-08
4.87923e-06
-5.02719e-08
4.87778e-06
-2.30673e-08
4.87648e-06
1.07447e-08
4.8822e-06
6.10263e-08
4.87924e-06
1.20071e-08
4.88308e-06
1.39436e-08
4.87487e-06
-2.36344e-08
4.87986e-06
-1.87705e-09
4.87352e-06
4.57955e-09
4.87993e-06
6.58692e-09
4.8762e-06
9.38135e-09
4.87989e-06
9.66711e-10
4.87796e-06
2.67683e-10
4.87712e-06
-7.20523e-09
4.87231e-06
-2.45992e-10
4.86665e-06
7.98102e-09
4.86149e-06
1.74917e-08
4.85824e-06
3.24175e-08
4.65444e-08
4.8556e-06
5.27237e-06
2.52205e-08
5.26861e-06
-4.65133e-08
5.26896e-06
-2.34241e-08
5.26601e-06
1.3701e-08
5.27286e-06
5.41746e-08
5.26838e-06
1.64913e-08
5.27322e-06
9.09794e-09
5.26505e-06
-1.54668e-08
5.26948e-06
-6.30543e-09
5.26546e-06
8.60678e-09
5.26853e-06
3.50851e-09
5.26921e-06
8.70961e-09
5.26872e-06
1.45292e-09
5.26855e-06
4.36799e-10
5.26409e-06
-2.74074e-09
5.25967e-06
4.16939e-09
5.25471e-06
1.29439e-08
5.25012e-06
2.20743e-08
5.24697e-06
3.55753e-08
4.82604e-08
5.24525e-06
5.69343e-06
2.32458e-08
5.68879e-06
-4.18669e-08
5.69041e-06
-2.50499e-08
5.68663e-06
1.74892e-08
5.69395e-06
4.68474e-08
5.6894e-06
2.10425e-08
5.69317e-06
5.33104e-09
5.68762e-06
-9.91543e-09
5.68849e-06
-7.17784e-09
5.68918e-06
7.91177e-09
5.68781e-06
4.8822e-09
5.69054e-06
5.97659e-09
5.68865e-06
3.34412e-09
5.68712e-06
1.97292e-09
5.68275e-06
1.6257e-09
5.67791e-06
9.00775e-09
5.6733e-06
1.75527e-08
5.66937e-06
2.60088e-08
5.66663e-06
3.83156e-08
4.95507e-08
5.66534e-06
6.14803e-06
2.1082e-08
6.14253e-06
-3.63585e-08
6.14512e-06
-2.76404e-08
6.14102e-06
2.15822e-08
6.14808e-06
3.97945e-08
6.14471e-06
2.44054e-08
6.14615e-06
3.89862e-09
6.14419e-06
-7.95775e-09
6.14131e-06
-4.30432e-09
6.14418e-06
5.05073e-09
6.14256e-06
6.50117e-09
6.14326e-06
5.27191e-09
6.14229e-06
4.31196e-09
6.13876e-06
5.50597e-09
6.13419e-06
6.19306e-09
6.13e-06
1.32002e-08
6.12562e-06
2.19378e-08
6.12207e-06
2.95511e-08
6.11985e-06
4.05382e-08
5.04808e-08
6.11892e-06
6.63884e-06
1.88071e-08
6.63272e-06
-3.02452e-08
6.6357e-06
-3.06214e-08
6.63227e-06
2.50202e-08
6.63781e-06
3.42525e-08
6.63709e-06
2.51196e-08
6.63524e-06
5.74907e-09
6.63577e-06
-8.48776e-09
6.63232e-06
-8.55407e-10
6.63355e-06
3.82483e-09
6.63421e-06
5.84675e-09
6.63215e-06
7.32989e-09
6.63091e-06
5.55088e-09
6.6273e-06
9.11772e-09
6.62209e-06
1.14006e-08
6.61821e-06
1.7077e-08
6.61445e-06
2.56963e-08
6.61117e-06
3.28304e-08
6.60938e-06
4.23316e-08
5.11167e-08
6.60874e-06
7.16872e-06
1.65124e-08
7.16242e-06
-2.39361e-08
7.16493e-06
-3.31364e-08
7.1633e-06
2.66485e-08
7.1663e-06
3.12537e-08
7.16864e-06
2.27832e-08
7.16446e-06
9.93029e-09
7.16492e-06
-8.94847e-09
7.16371e-06
3.48014e-10
7.16177e-06
5.76364e-09
7.16334e-06
4.28119e-09
7.16114e-06
9.53174e-09
7.15784e-06
8.85259e-09
7.15482e-06
1.21391e-08
7.14982e-06
1.63958e-08
7.14571e-06
2.1185e-08
7.14251e-06
2.88936e-08
7.13959e-06
3.57566e-08
7.13808e-06
4.38405e-08
5.14874e-08
7.13771e-06
7.74077e-06
1.43473e-08
7.73484e-06
-1.8011e-08
7.73583e-06
-3.41241e-08
7.73719e-06
2.52885e-08
7.73718e-06
3.12649e-08
7.74133e-06
1.86377e-08
7.73731e-06
1.39467e-08
7.73559e-06
-7.23343e-09
7.73658e-06
-6.35985e-10
7.73364e-06
8.6981e-09
7.73305e-06
4.87865e-09
7.73212e-06
1.04622e-08
7.72764e-06
1.33297e-08
7.72415e-06
1.56305e-08
7.71999e-06
2.05488e-08
7.71588e-06
2.53018e-08
7.71291e-06
3.18601e-08
7.7104e-06
3.82666e-08
7.70914e-06
4.51053e-08
5.16601e-08
7.70896e-06
8.35834e-06
1.2469e-08
8.35348e-06
-1.31496e-08
8.35194e-06
-3.25831e-08
8.35652e-06
2.07021e-08
8.35467e-06
3.31151e-08
8.35833e-06
1.49832e-08
8.35673e-06
1.55476e-08
8.35238e-06
-2.88786e-09
8.3535e-06
-1.75648e-09
8.35183e-06
1.0372e-08
8.34844e-06
8.27051e-09
8.34725e-06
1.16476e-08
8.3437e-06
1.68816e-08
8.33942e-06
1.9905e-08
8.33565e-06
2.43253e-08
8.33194e-06
2.90042e-08
8.32916e-06
3.46431e-08
8.32697e-06
4.04627e-08
8.32594e-06
4.6128e-08
5.1638e-08
8.32596e-06
9.02508e-06
1.10326e-08
9.02193e-06
-9.99404e-09
9.01732e-06
-2.79751e-08
9.02406e-06
1.3965e-08
9.0229e-06
3.42725e-08
9.02387e-06
1.40083e-08
9.02499e-06
1.4429e-08
9.01963e-06
2.47899e-09
9.01868e-06
-8.13594e-10
9.01854e-06
1.05159e-08
9.0145e-06
1.23113e-08
9.01157e-06
1.45794e-08
9.0085e-06
1.99534e-08
9.00452e-06
2.38785e-08
9.00075e-06
2.80958e-08
8.9974e-06
3.23522e-08
8.99488e-06
3.71656e-08
8.993e-06
4.23428e-08
8.99217e-06
4.69624e-08
5.14419e-08
8.99236e-06
9.74502e-06
1.01192e-08
9.74397e-06
-8.94889e-09
9.73661e-06
-2.06156e-08
9.74349e-06
7.08543e-09
9.74517e-06
3.25921e-08
9.74304e-06
1.61362e-08
9.74499e-06
1.2487e-08
9.74104e-06
6.42685e-09
9.73743e-06
2.79387e-09
9.73679e-06
1.11537e-08
9.73395e-06
1.51523e-08
9.72989e-06
1.86406e-08
9.72645e-06
2.33919e-08
9.72295e-06
2.73769e-08
9.71946e-06
3.15864e-08
9.71632e-06
3.54986e-08
9.71398e-06
3.95038e-08
9.71244e-06
4.38842e-08
9.71176e-06
4.76364e-08
5.10891e-08
9.71212e-06
1.05225e-05
9.69895e-09
1.05233e-05
-9.79849e-09
1.05147e-05
-1.19364e-08
1.05192e-05
2.51313e-09
1.05245e-05
2.72878e-08
1.05211e-05
1.95897e-08
1.05212e-05
1.23523e-08
1.05194e-05
8.20583e-09
1.05148e-05
7.48284e-09
1.05121e-05
1.38617e-08
1.05097e-05
1.74884e-08
1.05063e-05
2.20115e-08
1.05023e-05
2.74093e-08
1.04988e-05
3.08712e-08
1.04958e-05
3.46079e-08
1.0493e-05
3.83172e-08
1.04908e-05
4.17218e-08
1.04895e-05
4.51312e-08
1.04891e-05
4.80926e-08
5.06465e-08
1.04895e-05
1.13623e-05
9.61167e-09
1.13642e-05
-1.17225e-08
1.13562e-05
-3.92359e-09
1.13567e-05
2.02377e-09
1.13646e-05
1.93148e-08
1.13624e-05
2.18324e-08
1.13597e-05
1.50854e-08
1.13586e-05
9.26091e-09
1.13549e-05
1.12153e-08
1.13502e-05
1.85192e-08
1.13469e-05
2.08297e-08
1.13444e-05
2.44698e-08
1.13409e-05
3.08723e-08
1.13371e-05
3.47279e-08
1.13343e-05
3.7431e-08
1.1332e-05
4.05828e-08
1.133e-05
4.37425e-08
1.13289e-05
4.61663e-08
1.13287e-05
4.835e-08
5.01035e-08
1.13292e-05
1.22693e-05
9.62086e-09
1.22712e-05
-1.35536e-08
1.22656e-05
1.62583e-09
1.2262e-05
5.63605e-09
1.227e-05
1.12855e-08
1.22709e-05
2.09263e-08
1.22664e-05
1.9647e-08
1.22637e-05
1.19213e-08
1.22613e-05
1.35896e-08
1.22568e-05
2.3062e-08
1.22519e-05
2.57643e-08
1.22491e-05
2.72548e-08
1.22467e-05
3.32887e-08
1.22431e-05
3.82455e-08
1.22401e-05
4.04923e-08
1.22382e-05
4.25015e-08
1.22366e-05
4.53035e-08
1.22357e-05
4.71116e-08
1.22356e-05
4.84012e-08
4.94657e-08
1.22362e-05
1.3249e-05
9.50743e-09
1.32499e-05
-1.43918e-08
1.32475e-05
4.01627e-09
1.32415e-05
1.15842e-08
1.32464e-05
6.4394e-09
1.32506e-05
1.66961e-08
1.32467e-05
2.35803e-08
1.32416e-05
1.70467e-08
1.3239e-05
1.61483e-08
1.32359e-05
2.61489e-08
1.32307e-05
3.09963e-08
1.32266e-05
3.12906e-08
1.32245e-05
3.54313e-08
1.32219e-05
4.08469e-08
1.32189e-05
4.34791e-08
1.3217e-05
4.44059e-08
1.32159e-05
4.63762e-08
1.32152e-05
4.78511e-08
1.32152e-05
4.83625e-08
4.8743e-08
1.3216e-05
1.43071e-05
9.15495e-09
1.43065e-05
-1.38054e-08
1.43067e-05
3.8034e-09
1.43009e-05
1.7356e-08
1.43011e-05
6.24667e-09
1.43064e-05
1.14056e-08
1.43053e-05
2.474e-08
1.42992e-05
2.31446e-08
1.42945e-05
2.08113e-08
1.4292e-05
2.86203e-08
1.42882e-05
3.48469e-08
1.42838e-05
3.56932e-08
1.42809e-05
3.82937e-08
1.42789e-05
4.28284e-08
1.42765e-05
4.5918e-08
1.42746e-05
4.63461e-08
1.42738e-05
4.71204e-08
1.42734e-05
4.82844e-08
1.42735e-05
4.82336e-08
4.79241e-08
1.42743e-05
1.54496e-05
8.58526e-09
1.54478e-05
-1.2004e-08
1.54491e-05
2.44176e-09
1.54456e-05
2.09029e-08
1.54422e-05
9.66082e-09
1.54451e-05
8.49181e-09
1.54468e-05
2.30253e-08
1.54423e-05
2.76436e-08
1.54358e-05
2.73127e-08
1.5432e-05
3.23974e-08
1.54293e-05
3.75713e-08
1.54258e-05
3.91832e-08
1.54228e-05
4.13237e-08
1.54207e-05
4.4893e-08
1.5419e-05
4.7663e-08
1.54172e-05
4.81044e-08
1.54166e-05
4.7764e-08
1.54165e-05
4.83636e-08
1.54168e-05
4.79438e-08
4.70262e-08
1.54177e-05
1.66831e-05
7.93753e-09
1.66807e-05
-9.63307e-09
1.66818e-05
1.40804e-09
1.66809e-05
2.178e-08
1.66763e-05
1.42906e-08
1.66753e-05
9.48466e-09
1.66774e-05
2.09321e-08
1.6676e-05
2.90241e-08
1.66702e-05
3.3056e-08
1.66643e-05
3.82866e-08
1.66609e-05
4.09779e-08
1.66587e-05
4.13781e-08
1.66564e-05
4.37207e-08
1.66543e-05
4.68954e-08
1.66528e-05
4.91896e-08
1.66516e-05
4.9313e-08
1.66511e-05
4.82993e-08
1.66512e-05
4.82039e-08
1.66517e-05
4.74699e-08
4.605e-08
1.66527e-05
1.8015e-05
7.36959e-09
1.80127e-05
-7.33257e-09
1.80126e-05
1.47111e-09
1.80133e-05
2.10467e-08
1.80098e-05
1.77947e-08
1.80059e-05
1.34403e-08
1.80056e-05
2.12144e-08
1.80063e-05
2.83046e-08
1.80035e-05
3.59158e-08
1.79974e-05
4.43051e-08
1.79921e-05
4.62706e-08
1.79896e-05
4.39504e-08
1.79885e-05
4.47674e-08
1.79871e-05
4.83292e-08
1.79857e-05
5.05562e-08
1.79849e-05
5.01138e-08
1.79847e-05
4.85319e-08
1.79851e-05
4.78224e-08
1.79857e-05
4.67937e-08
4.50444e-08
1.79868e-05
1.94531e-05
6.94618e-09
1.94511e-05
-5.34619e-09
1.94501e-05
2.48194e-09
1.94509e-05
2.02312e-08
1.94493e-05
1.9465e-08
1.94449e-05
1.78368e-08
1.94415e-05
2.45989e-08
1.94412e-05
2.85756e-08
1.94418e-05
3.53561e-08
1.94383e-05
4.77288e-08
1.9432e-05
5.26246e-08
1.94277e-05
4.81925e-08
1.94267e-05
4.58426e-08
1.94266e-05
4.84044e-08
1.94258e-05
5.13556e-08
1.94251e-05
5.0838e-08
1.94251e-05
4.85279e-08
1.94258e-05
4.71198e-08
1.94267e-05
4.58403e-08
4.3927e-08
1.94278e-05
2.10061e-05
6.64989e-09
2.10043e-05
-3.57513e-09
2.1003e-05
3.77776e-09
2.1003e-05
2.02958e-08
2.10024e-05
2.00682e-08
2.09993e-05
2.09056e-08
2.09943e-05
2.95815e-08
2.09915e-05
3.13933e-08
2.09928e-05
3.4062e-08
2.09933e-05
4.72189e-08
2.09889e-05
5.7004e-08
2.09829e-05
5.42409e-08
2.09805e-05
4.82568e-08
2.09809e-05
4.79795e-08
2.09814e-05
5.08727e-08
2.0981e-05
5.12065e-08
2.0981e-05
4.85497e-08
2.09818e-05
4.62992e-08
2.09829e-05
4.47125e-08
4.26297e-08
2.09842e-05
2.26832e-05
6.32371e-09
2.26814e-05
-1.69222e-09
2.26803e-05
4.86756e-09
2.26794e-05
2.11823e-08
2.26784e-05
2.10308e-08
2.2677e-05
2.22944e-08
2.2673e-05
3.35974e-08
2.26678e-05
3.65783e-08
2.2667e-05
3.49422e-08
2.26702e-05
4.39694e-08
2.26695e-05
5.76664e-08
2.26646e-05
5.91569e-08
2.26601e-05
5.27835e-08
2.26596e-05
4.84492e-08
2.2661e-05
4.95016e-08
2.26618e-05
5.03852e-08
2.26619e-05
4.84767e-08
2.26628e-05
4.53782e-08
2.26642e-05
4.33603e-08
4.12426e-08
2.26656e-05
2.44944e-05
5.8679e-09
2.44921e-05
5.75836e-10
2.44915e-05
5.53839e-09
2.44904e-05
2.22779e-08
2.44882e-05
2.32215e-08
2.44877e-05
2.27675e-08
2.44858e-05
3.55135e-08
2.44805e-05
4.19142e-08
2.44769e-05
3.85369e-08
2.4479e-05
4.18131e-08
2.44825e-05
5.42115e-08
2.44807e-05
6.09496e-08
2.44764e-05
5.7085e-08
2.44739e-05
5.09077e-08
2.44749e-05
4.84707e-08
2.44767e-05
4.86579e-08
2.44779e-05
4.72913e-08
2.44786e-05
4.46133e-08
2.44801e-05
4.19047e-08
3.98078e-08
2.44815e-05
2.64502e-05
5.26904e-09
2.64476e-05
3.16636e-09
2.64468e-05
6.27273e-09
2.64464e-05
2.26774e-08
2.64434e-05
2.62639e-08
2.6442e-05
2.41586e-08
2.64422e-05
3.53307e-08
2.6439e-05
4.51012e-08
2.64339e-05
4.36286e-08
2.64336e-05
4.21668e-08
2.64377e-05
5.01144e-08
2.64399e-05
5.86659e-08
2.6438e-05
5.90215e-08
2.64352e-05
5.37259e-08
2.64346e-05
4.90963e-08
2.64364e-05
4.68396e-08
2.64382e-05
4.54236e-08
2.64399e-05
4.29704e-08
2.64412e-05
4.0617e-08
3.83608e-08
2.64426e-05
2.85619e-05
4.6989e-09
2.85595e-05
5.59498e-09
2.85581e-05
7.59438e-09
2.85585e-05
2.23068e-08
2.85556e-05
2.91458e-08
2.8553e-05
2.68135e-08
2.85538e-05
3.44808e-08
2.8553e-05
4.59048e-08
2.85491e-05
4.75017e-08
2.85465e-05
4.48435e-08
2.85489e-05
4.76538e-08
2.85533e-05
5.43133e-08
2.85547e-05
5.76511e-08
2.85535e-05
5.48942e-08
2.85524e-05
5.02067e-08
2.85528e-05
4.64505e-08
2.85549e-05
4.32639e-08
2.8557e-05
4.09191e-08
2.8559e-05
3.85546e-08
3.67035e-08
2.85607e-05
3.08421e-05
4.28472e-09
3.08401e-05
7.5539e-09
3.08381e-05
9.64826e-09
3.08388e-05
2.15677e-08
3.08371e-05
3.0856e-08
3.08336e-05
3.02861e-08
3.08336e-05
3.45308e-08
3.08349e-05
4.46066e-08
3.08332e-05
4.91844e-08
3.08304e-05
4.76861e-08
3.08308e-05
4.72146e-08
3.08344e-05
5.07573e-08
3.08383e-05
5.37348e-08
3.08394e-05
5.38066e-08
3.08393e-05
5.028e-08
3.08393e-05
4.64087e-08
3.08401e-05
4.25034e-08
3.08423e-05
3.87372e-08
3.08444e-05
3.64475e-08
3.44448e-08
3.08466e-05
3.33042e-05
4.14388e-09
3.33029e-05
8.86715e-09
3.33006e-05
1.201e-08
3.33008e-05
2.12893e-08
3.33005e-05
3.12054e-08
3.32975e-05
3.32883e-08
3.32965e-05
3.55544e-08
3.3298e-05
4.30341e-08
3.32986e-05
4.85879e-08
3.32973e-05
4.90301e-08
3.32966e-05
4.79326e-08
3.32989e-05
4.83916e-08
3.33027e-05
4.99759e-08
3.33062e-05
5.0335e-08
3.33075e-05
4.89499e-08
3.33083e-05
4.56559e-08
3.33087e-05
4.20821e-08
3.33094e-05
3.80517e-08
3.33113e-05
3.44888e-08
3.24162e-08
3.33134e-05
3.59631e-05
4.22201e-09
3.59622e-05
9.69676e-09
3.59601e-05
1.41577e-08
3.59597e-05
2.16823e-08
3.59602e-05
3.06637e-08
3.59584e-05
3.50899e-08
3.59571e-05
3.69222e-08
3.59581e-05
4.19529e-08
3.59601e-05
4.66418e-08
3.59605e-05
4.85634e-08
3.59606e-05
4.79037e-08
3.59616e-05
4.73232e-08
3.59647e-05
4.68785e-08
3.59684e-05
4.67242e-08
3.59715e-05
4.57803e-08
3.59732e-05
4.39686e-08
3.59742e-05
4.10757e-08
3.59747e-05
3.75274e-08
3.59755e-05
3.37547e-08
3.06829e-08
3.59772e-05
3.88343e-05
4.39049e-09
3.88337e-05
1.03024e-08
3.88322e-05
1.56766e-08
3.88313e-05
2.25011e-08
3.88321e-05
2.99165e-08
3.88317e-05
3.5473e-08
3.88308e-05
3.78436e-08
3.88316e-05
4.11195e-08
3.88337e-05
4.45912e-08
3.88357e-05
4.65125e-08
3.88369e-05
4.67172e-08
3.88383e-05
4.59551e-08
3.88403e-05
4.48609e-08
3.88436e-05
4.3435e-08
3.88469e-05
4.24159e-08
3.885e-05
4.09187e-08
3.88519e-05
3.91611e-08
3.88531e-05
3.63896e-08
3.88538e-05
3.29778e-08
2.97842e-08
3.88547e-05
4.19349e-05
4.50276e-09
4.19344e-05
1.08364e-08
4.19335e-05
1.65212e-08
4.19329e-05
2.31656e-08
4.19335e-05
2.93289e-08
4.19342e-05
3.47492e-08
4.19343e-05
3.77394e-08
4.19352e-05
4.02588e-08
4.19373e-05
4.24587e-08
4.19399e-05
4.38661e-08
4.19423e-05
4.43261e-08
4.19445e-05
4.37861e-08
4.19466e-05
4.27409e-08
4.19492e-05
4.08899e-08
4.19524e-05
3.91927e-08
4.19556e-05
3.77133e-08
4.19586e-05
3.61131e-08
4.19606e-05
3.43839e-08
4.1962e-05
3.1639e-08
2.86585e-08
4.19631e-05
4.52832e-05
4.49541e-09
4.52828e-05
1.12483e-08
4.52825e-05
1.68036e-08
4.52823e-05
2.32909e-08
4.5283e-05
2.87151e-08
4.52843e-05
3.33865e-08
4.52855e-05
3.6593e-08
4.5287e-05
3.87271e-08
4.52892e-05
4.02949e-08
4.52921e-05
4.0932e-08
4.52952e-05
4.12238e-08
4.52981e-05
4.08425e-08
4.53009e-05
3.99539e-08
4.53035e-05
3.83332e-08
4.53064e-05
3.62841e-08
4.53096e-05
3.45215e-08
4.53128e-05
3.28842e-08
4.53159e-05
3.13456e-08
4.53179e-05
2.96284e-08
2.7081e-08
4.53194e-05
4.88987e-05
4.37583e-09
4.88986e-05
1.13616e-08
4.88988e-05
1.66609e-08
4.88993e-05
2.2728e-08
4.89003e-05
2.77308e-08
4.89021e-05
3.16195e-08
4.89041e-05
3.45599e-08
4.89064e-05
3.63812e-08
4.89091e-05
3.76748e-08
4.89121e-05
3.78511e-08
4.89156e-05
3.77692e-08
4.89191e-05
3.732e-08
4.89225e-05
3.65694e-08
4.89256e-05
3.52131e-08
4.89285e-05
3.33773e-08
4.89317e-05
3.1351e-08
4.89349e-05
2.96687e-08
4.89381e-05
2.81223e-08
4.89411e-05
2.67175e-08
2.50589e-08
4.89431e-05
5.28029e-05
4.15995e-09
5.28032e-05
1.10536e-08
5.28038e-05
1.61097e-08
5.28051e-05
2.14613e-08
5.28066e-05
2.61407e-08
5.28088e-05
2.94144e-08
5.28115e-05
3.18561e-08
5.28146e-05
3.33248e-08
5.28179e-05
3.43349e-08
5.28214e-05
3.44399e-08
5.28251e-05
3.40262e-08
5.2829e-05
3.34667e-08
5.28328e-05
3.27556e-08
5.28363e-05
3.16517e-08
5.28396e-05
3.01032e-08
5.28427e-05
2.82644e-08
5.28459e-05
2.64361e-08
5.28492e-05
2.48938e-08
5.28523e-05
2.36148e-08
2.23315e-08
5.2855e-05
5.70188e-05
3.84976e-09
5.70196e-05
1.02872e-08
5.70206e-05
1.5062e-08
5.70225e-05
1.95901e-08
5.70249e-05
2.37915e-08
5.70276e-05
2.66352e-08
5.70309e-05
2.85825e-08
5.70345e-05
2.96988e-08
5.70385e-05
3.03866e-08
5.70425e-05
3.04641e-08
5.70465e-05
2.99553e-08
5.70508e-05
2.92252e-08
5.7055e-05
2.85419e-08
5.70589e-05
2.77087e-08
5.70624e-05
2.66023e-08
5.70656e-05
2.51211e-08
5.70686e-05
2.3445e-08
5.70716e-05
2.18409e-08
5.70748e-05
2.0407e-08
1.91403e-08
5.7078e-05
6.15714e-05
3.42061e-09
6.15726e-05
9.09001e-09
6.15742e-05
1.34407e-08
6.15766e-05
1.71751e-08
6.15797e-05
2.06803e-08
6.15832e-05
2.31555e-08
6.15871e-05
2.46926e-08
6.15913e-05
2.55179e-08
6.15957e-05
2.59769e-08
6.16001e-05
2.60337e-08
6.16045e-05
2.55849e-08
6.16089e-05
2.47879e-08
6.16135e-05
2.38987e-08
6.16182e-05
2.30127e-08
6.16228e-05
2.20749e-08
6.16268e-05
2.11094e-08
6.16302e-05
1.9986e-08
6.16333e-05
1.87903e-08
6.16361e-05
1.76185e-08
1.65678e-08
6.16386e-05
6.64874e-05
2.85253e-09
6.6489e-05
7.46944e-09
6.64912e-05
1.11847e-08
6.64942e-05
1.41993e-08
6.6498e-05
1.69197e-08
6.65022e-05
1.89585e-08
6.65067e-05
2.01917e-08
6.65114e-05
2.07856e-08
6.65163e-05
2.10434e-08
6.65213e-05
2.10807e-08
6.65261e-05
2.08233e-08
6.65306e-05
2.0275e-08
6.65349e-05
1.95523e-08
6.65391e-05
1.87977e-08
6.65432e-05
1.80148e-08
6.65472e-05
1.71449e-08
6.6551e-05
1.61623e-08
6.65547e-05
1.51205e-08
6.65582e-05
1.4093e-08
1.31532e-08
6.65616e-05
7.17958e-05
2.19271e-09
7.17977e-05
5.58105e-09
7.18005e-05
8.36478e-09
7.18041e-05
1.06296e-08
7.18084e-05
1.25875e-08
7.18133e-05
1.41026e-08
7.18184e-05
1.50579e-08
7.18237e-05
1.55107e-08
7.18291e-05
1.56506e-08
7.18345e-05
1.56313e-08
7.18399e-05
1.5447e-08
7.18451e-05
1.50748e-08
7.18501e-05
1.45514e-08
7.18549e-05
1.3972e-08
7.18596e-05
1.33939e-08
7.18639e-05
1.28041e-08
7.18679e-05
1.2164e-08
7.18716e-05
1.1465e-08
7.18749e-05
1.07347e-08
1.00242e-08
7.1878e-05
7.75284e-05
7.75308e-05
7.75342e-05
7.75385e-05
7.75435e-05
7.7549e-05
7.75547e-05
7.75606e-05
7.75666e-05
7.75724e-05
7.75782e-05
7.75838e-05
7.75892e-05
7.75943e-05
7.75992e-05
7.76039e-05
7.76084e-05
7.76125e-05
7.76164e-05
7.76199e-05
3.77061e-06
6.70652e-08
3.67727e-06
9.33458e-08
3.57801e-06
9.92547e-08
3.48e-06
9.8015e-08
3.38233e-06
9.76673e-08
3.28353e-06
9.88026e-08
3.18311e-06
1.00417e-07
3.08064e-06
1.02471e-07
2.97619e-06
1.04448e-07
2.8698e-06
1.0639e-07
2.76134e-06
1.0846e-07
2.65081e-06
1.10536e-07
2.53855e-06
1.12261e-07
2.42451e-06
1.14035e-07
2.30869e-06
1.15823e-07
2.19164e-06
1.1705e-07
2.07305e-06
1.18592e-07
1.95318e-06
1.19868e-07
1.83256e-06
1.20616e-07
1.71069e-06
1.21875e-07
1.58874e-06
1.21944e-07
1.46944e-06
1.19304e-07
1.35487e-06
1.14571e-07
1.2476e-06
1.07264e-07
1.15028e-06
9.73207e-08
1.06515e-06
8.51352e-08
9.95183e-07
6.99648e-08
9.42453e-07
5.273e-08
9.0652e-07
3.59334e-08
8.83509e-07
2.30102e-08
8.6684e-07
1.6669e-08
8.52642e-07
1.41987e-08
8.41007e-07
1.16349e-08
8.31817e-07
9.18942e-09
8.25703e-07
6.11424e-09
8.21943e-07
3.75981e-09
8.16191e-07
5.75217e-09
8.07627e-07
8.56421e-09
7.9949e-07
8.13692e-09
7.92154e-07
7.33563e-09
7.84603e-07
7.5513e-09
7.76833e-07
7.77036e-09
7.68502e-07
8.33095e-09
7.59593e-07
8.90929e-09
7.51101e-07
8.49141e-09
7.43384e-07
7.71695e-09
7.35901e-07
7.48273e-09
7.28892e-07
7.0095e-09
7.23216e-07
5.67624e-09
7.1834e-07
4.87553e-09
7.13641e-07
4.69952e-09
7.0971e-07
3.93035e-09
7.06261e-07
3.4493e-09
7.02621e-07
3.64038e-09
6.99529e-07
3.09141e-09
6.97313e-07
2.21669e-09
6.95104e-07
2.20867e-09
6.93318e-07
1.78568e-09
6.92545e-07
7.72978e-10
6.91948e-07
5.97502e-10
6.90836e-07
1.11195e-09
6.90094e-07
7.4146e-10
6.90069e-07
2.55931e-11
6.90179e-07
-1.10234e-10
6.90086e-07
9.3381e-11
6.90127e-07
-4.16392e-11
6.90388e-07
-2.60625e-10
6.90656e-07
-2.67911e-10
6.9086e-07
-2.04352e-10
6.91024e-07
-1.64126e-10
6.91219e-07
-1.94462e-10
6.91374e-07
-1.55514e-10
6.91529e-07
-1.5451e-10
6.91658e-07
-1.29714e-10
6.91784e-07
-1.25535e-10
6.91904e-07
-1.1983e-10
6.91997e-07
-9.28105e-11
6.92093e-07
-9.62732e-11
6.92157e-07
-6.3879e-11
6.92216e-07
-5.93204e-11
6.92262e-07
-4.55965e-11
6.92283e-07
-2.10638e-11
6.92317e-07
-3.46826e-11
6.92318e-07
-9.30494e-13
6.92334e-07
-1.61083e-11
6.92343e-07
-8.65148e-12
6.92329e-07
1.41034e-11
6.92356e-07
-2.69441e-11
6.92324e-07
3.20572e-11
6.92341e-07
-1.69762e-11
6.92328e-07
1.29167e-11
6.92297e-07
3.10886e-11
6.92308e-07
-1.1284e-11
6.92244e-07
6.38854e-11
6.92214e-07
2.98854e-11
6.9216e-07
5.43543e-11
6.92033e-07
1.26976e-10
6.91966e-07
6.72213e-11
6.91716e-07
2.50101e-10
7.61884e-10
4.16098e-06
6.1643e-08
4.16507e-06
8.92553e-08
4.16009e-06
1.04236e-07
4.15066e-06
1.07445e-07
4.14016e-06
1.0817e-07
4.12846e-06
1.10506e-07
4.11477e-06
1.14102e-07
4.09809e-06
1.1915e-07
4.07852e-06
1.2402e-07
4.0556e-06
1.29311e-07
4.02947e-06
1.34594e-07
3.99984e-06
1.40166e-07
3.96655e-06
1.45551e-07
3.92986e-06
1.50717e-07
3.88901e-06
1.56679e-07
3.84471e-06
1.61345e-07
3.79643e-06
1.66875e-07
3.74388e-06
1.72419e-07
3.68756e-06
1.76938e-07
3.62692e-06
1.82513e-07
3.56208e-06
1.8678e-07
3.49355e-06
1.87841e-07
3.42319e-06
1.84929e-07
3.35146e-06
1.78993e-07
3.27897e-06
1.69812e-07
3.20837e-06
1.55732e-07
3.14021e-06
1.38126e-07
3.07654e-06
1.16397e-07
3.02055e-06
9.19302e-08
2.97063e-06
7.29233e-08
2.92441e-06
6.28967e-08
2.88113e-06
5.74713e-08
2.83876e-06
5.40061e-08
2.79781e-06
5.0142e-08
2.76075e-06
4.31767e-08
2.72498e-06
3.95273e-08
2.68722e-06
4.35071e-08
2.6489e-06
4.68889e-08
2.61192e-06
4.51165e-08
2.57725e-06
4.20088e-08
2.5451e-06
3.96976e-08
2.51364e-06
3.92311e-08
2.48186e-06
4.01129e-08
2.45067e-06
4.00935e-08
2.42045e-06
3.8715e-08
2.39114e-06
3.70256e-08
2.36323e-06
3.53923e-08
2.33704e-06
3.3197e-08
2.31283e-06
2.98898e-08
2.29069e-06
2.70185e-08
2.27041e-06
2.4982e-08
2.25178e-06
2.25586e-08
2.23473e-06
2.04977e-08
2.21937e-06
1.89965e-08
2.20573e-06
1.67389e-08
2.19341e-06
1.4527e-08
2.18244e-06
1.31836e-08
2.17352e-06
1.07085e-08
2.16643e-06
7.86512e-09
2.16012e-06
6.89939e-09
2.1544e-06
6.83618e-09
2.14999e-06
5.14595e-09
2.14686e-06
3.15903e-09
2.14446e-06
2.29395e-09
2.14259e-06
1.95617e-09
2.1415e-06
1.05629e-09
2.14103e-06
2.09536e-10
2.1409e-06
-1.41468e-10
2.14094e-06
-2.40692e-10
2.1411e-06
-3.32425e-10
2.14137e-06
-4.56954e-10
2.14168e-06
-4.6452e-10
2.14202e-06
-5.00919e-10
2.14241e-06
-5.1555e-10
2.14282e-06
-5.35352e-10
2.14325e-06
-5.5616e-10
2.14366e-06
-5.0227e-10
2.14407e-06
-4.97849e-10
2.14439e-06
-3.91176e-10
2.14468e-06
-3.48885e-10
2.14489e-06
-2.54171e-10
2.14505e-06
-1.83156e-10
2.14516e-06
-1.4478e-10
2.14523e-06
-7.319e-11
2.14528e-06
-6.17529e-11
2.14532e-06
-4.349e-11
2.14532e-06
1.3088e-11
2.14535e-06
-5.8557e-11
2.14532e-06
5.9655e-11
2.14535e-06
-4.32e-11
2.14531e-06
4.63288e-11
2.14531e-06
3.25055e-11
2.14528e-06
2.23064e-11
2.14524e-06
1.03574e-10
2.14518e-06
8.8707e-11
2.14509e-06
1.40889e-10
2.14497e-06
2.52793e-10
2.1448e-06
2.34061e-10
2.14464e-06
4.07498e-10
1.69083e-09
4.49473e-06
6.00261e-08
4.50053e-06
8.34547e-08
4.50419e-06
1.00576e-07
4.50425e-06
1.07392e-07
4.50319e-06
1.09221e-07
4.50276e-06
1.10943e-07
4.50312e-06
1.13744e-07
4.50329e-06
1.18975e-07
4.50302e-06
1.24287e-07
4.50186e-06
1.30479e-07
4.4998e-06
1.36647e-07
4.49689e-06
1.43078e-07
4.49268e-06
1.49758e-07
4.48752e-06
1.55878e-07
4.48076e-06
1.63441e-07
4.47271e-06
1.69394e-07
4.46327e-06
1.76319e-07
4.4519e-06
1.83787e-07
4.43915e-06
1.89688e-07
4.42475e-06
1.96911e-07
4.40837e-06
2.03159e-07
4.38971e-06
2.06503e-07
4.36943e-06
2.05209e-07
4.34741e-06
2.01019e-07
4.3231e-06
1.94113e-07
4.29764e-06
1.81196e-07
4.27105e-06
1.64719e-07
4.24344e-06
1.44004e-07
4.21676e-06
1.18607e-07
4.19167e-06
9.80199e-08
4.16721e-06
8.73569e-08
4.14349e-06
8.11898e-08
4.11978e-06
7.77138e-08
4.09547e-06
7.44542e-08
4.07243e-06
6.62189e-08
4.04994e-06
6.20163e-08
4.02576e-06
6.76828e-08
4.00096e-06
7.16891e-08
3.97645e-06
6.96298e-08
3.95188e-06
6.6575e-08
3.92749e-06
6.4086e-08
3.90259e-06
6.41359e-08
3.87645e-06
6.62496e-08
3.84971e-06
6.68348e-08
3.82312e-06
6.53035e-08
3.79685e-06
6.33016e-08
3.7711e-06
6.11342e-08
3.74675e-06
5.75477e-08
3.72408e-06
5.25576e-08
3.7022e-06
4.8901e-08
3.68085e-06
4.63333e-08
3.66023e-06
4.31758e-08
3.63997e-06
4.07659e-08
3.62039e-06
3.857e-08
3.60223e-06
3.48999e-08
3.58502e-06
3.17395e-08
3.56859e-06
2.96149e-08
3.55392e-06
2.53751e-08
3.54102e-06
2.07614e-08
3.52895e-06
1.8975e-08
3.5177e-06
1.80885e-08
3.50798e-06
1.48608e-08
3.49968e-06
1.146e-08
3.49234e-06
9.63578e-09
3.48591e-06
8.38278e-09
3.48062e-06
6.34672e-09
3.47631e-06
4.519e-09
3.47279e-06
3.37642e-09
3.46992e-06
2.63776e-09
3.46768e-06
1.89916e-09
3.46599e-06
1.23647e-09
3.46479e-06
7.36063e-10
3.46399e-06
3.03797e-10
3.46356e-06
-9.39889e-11
3.46347e-06
-4.44665e-10
3.46371e-06
-7.88665e-10
3.46419e-06
-9.90558e-10
3.46489e-06
-1.19312e-09
3.46567e-06
-1.17053e-09
3.46648e-06
-1.15585e-09
3.46719e-06
-9.6693e-10
3.46781e-06
-8.03566e-10
3.46827e-06
-6.05487e-10
3.46862e-06
-4.23002e-10
3.46885e-06
-2.90157e-10
3.469e-06
-1.93861e-10
3.46909e-06
-7.52721e-11
3.46914e-06
-1.14502e-10
3.46916e-06
4.62934e-11
3.46919e-06
-7.37525e-11
3.46916e-06
7.39894e-11
3.46917e-06
1.98529e-11
3.46914e-06
5.26622e-11
3.46909e-06
1.51999e-10
3.46908e-06
1.00207e-10
3.46896e-06
2.62176e-10
3.46891e-06
3.02886e-10
3.46871e-06
4.34286e-10
3.46866e-06
4.59516e-10
2.28848e-09
4.85629e-06
5.93369e-08
4.86037e-06
7.93778e-08
4.86511e-06
9.58334e-08
4.86704e-06
1.05463e-07
4.86698e-06
1.09281e-07
4.86705e-06
1.1088e-07
4.8679e-06
1.12885e-07
4.86944e-06
1.17434e-07
4.87124e-06
1.22495e-07
4.87288e-06
1.28838e-07
4.87422e-06
1.35303e-07
4.87554e-06
1.41762e-07
4.87652e-06
1.48778e-07
4.87743e-06
1.54965e-07
4.87804e-06
1.62829e-07
4.87836e-06
1.69072e-07
4.8787e-06
1.75982e-07
4.87856e-06
1.83927e-07
4.87844e-06
1.89812e-07
4.87852e-06
1.96828e-07
4.87834e-06
2.03337e-07
4.87766e-06
2.07182e-07
4.87655e-06
2.0632e-07
4.87481e-06
2.02759e-07
4.87181e-06
1.97111e-07
4.86766e-06
1.85346e-07
4.86229e-06
1.70089e-07
4.8551e-06
1.51194e-07
4.84657e-06
1.27145e-07
4.83786e-06
1.06726e-07
4.82927e-06
9.59498e-08
4.8209e-06
8.95615e-08
4.81259e-06
8.60219e-08
4.80364e-06
8.34052e-08
4.79462e-06
7.52357e-08
4.78596e-06
7.06733e-08
4.77698e-06
7.66659e-08
4.76798e-06
8.0693e-08
4.75916e-06
7.84491e-08
4.75e-06
7.57335e-08
4.7406e-06
7.34837e-08
4.73071e-06
7.40298e-08
4.71963e-06
7.73221e-08
4.70749e-06
7.89752e-08
4.69477e-06
7.80227e-08
4.68171e-06
7.63649e-08
4.66849e-06
7.43562e-08
4.6557e-06
7.03329e-08
4.64376e-06
6.45011e-08
4.63237e-06
6.02952e-08
4.62147e-06
5.72328e-08
4.61113e-06
5.35094e-08
4.60074e-06
5.11614e-08
4.59e-06
4.93019e-08
4.57931e-06
4.55945e-08
4.5686e-06
4.24453e-08
4.55792e-06
4.0303e-08
4.54791e-06
3.53786e-08
4.53871e-06
2.99657e-08
4.5298e-06
2.7885e-08
4.5212e-06
2.6684e-08
4.51339e-06
2.2677e-08
4.50632e-06
1.85246e-08
4.4998e-06
1.61592e-08
4.49381e-06
1.43693e-08
4.48852e-06
1.16399e-08
4.48382e-06
9.21495e-09
4.47967e-06
7.53222e-09
4.47598e-06
6.3256e-09
4.47281e-06
5.07093e-09
4.47009e-06
3.95659e-09
4.46782e-06
2.99928e-09
4.46598e-06
2.15236e-09
4.46455e-06
1.33168e-09
4.46353e-06
5.79327e-10
4.46289e-06
-1.50626e-10
4.46261e-06
-7.11868e-10
4.46266e-06
-1.24738e-09
4.463e-06
-1.50268e-09
4.46357e-06
-1.72864e-09
4.46427e-06
-1.66862e-09
4.46505e-06
-1.58056e-09
4.46578e-06
-1.33659e-09
4.46642e-06
-1.06654e-09
4.46694e-06
-8.06304e-10
4.4673e-06
-5.60422e-10
4.46757e-06
-3.40923e-10
4.46772e-06
-2.66895e-10
4.46782e-06
-4.74648e-11
4.46787e-06
-1.2726e-10
4.46788e-06
6.38706e-11
4.46788e-06
1.71207e-11
4.46789e-06
5.00455e-11
4.46782e-06
2.15478e-10
4.46784e-06
8.01075e-11
4.46772e-06
3.79471e-10
4.46772e-06
3.04383e-10
4.46754e-06
6.18984e-10
4.46755e-06
4.47188e-10
2.54597e-09
5.24588e-06
5.87094e-08
5.2492e-06
7.60561e-08
5.2535e-06
9.15358e-08
5.25655e-06
1.0241e-07
5.25771e-06
1.08122e-07
5.25793e-06
1.10655e-07
5.25846e-06
1.12363e-07
5.2598e-06
1.16093e-07
5.26168e-06
1.20609e-07
5.26364e-06
1.26883e-07
5.26539e-06
1.33553e-07
5.2672e-06
1.3995e-07
5.26886e-06
1.47119e-07
5.27061e-06
1.53218e-07
5.27238e-06
1.61059e-07
5.274e-06
1.67455e-07
5.27598e-06
1.73997e-07
5.2779e-06
1.82006e-07
5.28005e-06
1.87662e-07
5.28291e-06
1.93971e-07
5.2861e-06
2.00151e-07
5.28933e-06
2.03951e-07
5.29248e-06
2.03162e-07
5.29564e-06
1.99605e-07
5.29817e-06
1.94583e-07
5.29977e-06
1.83746e-07
5.30054e-06
1.69317e-07
5.2998e-06
1.51933e-07
5.29741e-06
1.29538e-07
5.29442e-06
1.09718e-07
5.29156e-06
9.88058e-08
5.28906e-06
9.20619e-08
5.28684e-06
8.82454e-08
5.28419e-06
8.60557e-08
5.28105e-06
7.83748e-08
5.27816e-06
7.35573e-08
5.27567e-06
7.91618e-08
5.27351e-06
8.28534e-08
5.27156e-06
8.03992e-08