/*--------------------------------*- C++ -*----------------------------------*\
  =========                 |
  \\      /  F ield         | OpenFOAM: The Open Source CFD Toolbox
   \\    /   O peration     | Website:  https://openfoam.org
    \\  /    A nd           | Version:  10
     \\/     M anipulation  |
\*---------------------------------------------------------------------------*/
FoamFile
{
    format      ascii;
    class       volVectorField;
    location    "0.4";
    object      U;
}
// * * * * * * * * * * * * * * * * * * * * * * * * * * * * * * * * * * * * * //

dimensions      [0 1 -1 0 0 0 0];

internalField   nonuniform List<vector> 
4800
(
(0.960152 0.000342649 0)
(1.04017 -0.000722924 0)
(0.961294 -0.000419129 0)
(1.03428 0.000250215 0)
(0.967651 0.00113386 0)
(1.03275 0.000113443 0)
(0.970554 0.000277522 0)
(1.02854 -0.000886306 0)
(0.97206 9.99223e-05 0)
(1.02375 -0.000258055 0)
(0.974804 0.000643007 0)
(1.02142 -9.14532e-05 0)
(0.97804 0.000498621 0)
(1.01865 -0.000300123 0)
(0.980303 4.26989e-05 0)
(1.01588 -0.000571123 0)
(0.98205 -2.7861e-05 0)
(1.01279 -0.000529233 0)
(0.982669 0.000424345 0)
(1.00927 0.000670141 0)
(0.982377 0.000222947 0)
(1.0159 -0.000558304 0)
(0.984279 -0.000395336 0)
(1.01047 0.000200057 0)
(0.989946 0.000979462 0)
(1.00929 0.00016405 0)
(0.992387 0.000310473 0)
(1.00615 -0.000759091 0)
(0.993096 0.000176836 0)
(1.00271 -0.000250617 0)
(0.994589 0.000636477 0)
(1.00176 -0.000170076 0)
(0.996213 0.000489246 0)
(1.00048 -0.000402721 0)
(0.996922 2.26327e-05 0)
(0.999433 -0.000637139 0)
(0.997167 0.000118964 0)
(0.9981 -0.000203094 0)
(0.996492 0.00124493 0)
(0.996312 0.00189461 0)
(0.995845 0.000308598 0)
(1.00349 -0.000603568 0)
(0.996054 -0.000294482 0)
(1.00068 0.000113392 0)
(0.998279 0.000981025 0)
(1.00129 0.00011155 0)
(0.998906 0.000307525 0)
(1.00037 -0.000617034 0)
(0.998352 7.83485e-05 0)
(0.998833 -0.000104539 0)
(0.998422 0.000353499 0)
(0.999139 9.30489e-05 0)
(0.998808 0.000180255 0)
(0.998898 -8.01577e-05 0)
(0.998638 -0.000221321 0)
(0.998631 -0.000246085 0)
(0.998379 2.02219e-05 0)
(0.998033 0.000400819 0)
(0.997433 0.00130871 0)
(0.996922 0.00224071 0)
(0.999474 0.000269766 0)
(1.00076 -0.000576862 0)
(0.998941 -0.000281738 0)
(0.999262 0.000120483 0)
(0.999764 0.000919767 0)
(1.00014 0.000152801 0)
(0.999792 0.000286821 0)
(0.99986 -0.000526304 0)
(0.999188 2.42342e-05 0)
(0.998865 4.0226e-05 0)
(0.999016 0.000206632 0)
(0.999236 0.000227106 0)
(0.999251 4.6837e-05 0)
(0.999121 7.04775e-06 0)
(0.998984 -0.000277565 0)
(0.998889 -8.48803e-05 0)
(0.998729 0.000178542 0)
(0.998405 0.000624845 0)
(0.99793 0.0014394 0)
(0.997494 0.00234076 0)
(1.00004 0.000261802 0)
(1.0004 -0.000519142 0)
(0.999403 -0.000270292 0)
(0.999274 0.000159052 0)
(0.999991 0.000800364 0)
(1.00005 0.00022591 0)
(0.999853 0.000181157 0)
(0.999857 -0.000323243 0)
(0.999366 -0.000107307 0)
(0.999028 0.000178731 0)
(0.999168 8.06709e-05 0)
(0.999345 0.000249015 0)
(0.999394 1.44145e-05 0)
(0.999281 4.34963e-06 0)
(0.999153 -0.000169362 0)
(0.999068 6.20573e-05 0)
(0.998931 0.000407305 0)
(0.998633 0.00086135 0)
(0.998226 0.00162333 0)
(0.997844 0.00244876 0)
(1.0001 0.000249287 0)
(1.00035 -0.000497252 0)
(0.999472 -0.000289155 0)
(0.999344 0.000205226 0)
(1.00004 0.000714141 0)
(1.00004 0.00029031 0)
(0.999833 0.000112052 0)
(0.99984 -0.000210012 0)
(0.999421 -0.00015244 0)
(0.999092 0.000198597 0)
(0.999199 0.000101373 0)
(0.999365 0.000171353 0)
(0.999417 7.27475e-05 0)
(0.999325 2.15945e-05 0)
(0.999229 -2.85735e-05 0)
(0.999172 0.000238292 0)
(0.999055 0.000594631 0)
(0.998796 0.00102935 0)
(0.998437 0.00174016 0)
(0.998091 0.00250747 0)
(1.0001 0.00021906 0)
(1.00034 -0.000424796 0)
(0.999499 -0.000309139 0)
(0.999385 0.000257317 0)
(1.00005 0.000593353 0)
(1.00002 0.000365128 0)
(0.99981 5.85567e-05 0)
(0.999825 -0.000140946 0)
(0.999439 -0.000121335 0)
(0.999118 0.000117295 0)
(0.999203 0.000151287 0)
(0.999367 0.00012242 0)
(0.999416 0.000105159 0)
(0.999332 0.00010956 0)
(0.999274 0.000132659 0)
(0.999254 0.000391326 0)
(0.999157 0.000775665 0)
(0.99894 0.00118763 0)
(0.998632 0.00183951 0)
(0.998315 0.00255679 0)
(1.0001 0.000202888 0)
(1.00032 -0.00036474 0)
(0.999526 -0.000354955 0)
(0.999425 0.000317749 0)
(1.00006 0.000510171 0)
(0.999996 0.000393989 0)
(0.99978 7.17303e-05 0)
(0.999812 -0.00015872 0)
(0.999451 -3.89068e-05 0)
(0.999138 7.741e-05 0)
(0.999207 0.000155988 0)
(0.999359 0.000168774 0)
(0.999421 0.000120645 0)
(0.999344 0.000218917 0)
(0.999307 0.000297388 0)
(0.999331 0.000531331 0)
(0.99926 0.000923553 0)
(0.999082 0.00133629 0)
(0.998827 0.00193148 0)
(0.998536 0.00258988 0)
(1.00009 0.000174976 0)
(1.0003 -0.000290551 0)
(0.999553 -0.000382734 0)
(0.999459 0.000349778 0)
(1.00006 0.000444894 0)
(0.999974 0.00037383 0)
(0.999746 0.00012941 0)
(0.999807 -0.000172106 0)
(0.999463 1.06216e-05 0)
(0.999142 0.000101894 0)
(0.999215 9.45114e-05 0)
(0.999359 0.000224941 0)
(0.999425 0.000199745 0)
(0.999369 0.000308431 0)
(0.999347 0.000457189 0)
(0.999407 0.000687107 0)
(0.999368 0.00105853 0)
(0.999227 0.00147107 0)
(0.999016 0.002012 0)
(0.99875 0.00260641 0)
(1.00008 0.000154247 0)
(1.00027 -0.000221713 0)
(0.999579 -0.000414657 0)
(0.999496 0.000351611 0)
(1.00005 0.000440078 0)
(0.999956 0.000313873 0)
(0.999707 0.0002141 0)
(0.99979 -0.000159196 0)
(0.999479 -1.92019e-06 0)
(0.999142 0.000174188 0)
(0.999222 9.27762e-05 0)
(0.999372 0.000240498 0)
(0.999434 0.000312453 0)
(0.999396 0.00041791 0)
(0.999394 0.000601033 0)
(0.999484 0.000837291 0)
(0.999477 0.0011922 0)
(0.999371 0.00158398 0)
(0.9992 0.00207597 0)
(0.998958 0.00261861 0)
(1.00008 0.000131417 0)
(1.00024 -0.000160481 0)
(0.999602 -0.000405731 0)
(0.999533 0.000301873 0)
(1.00004 0.000460314 0)
(0.999938 0.000239593 0)
(0.999673 0.000262714 0)
(0.999767 -9.18876e-05 0)
(0.999501 -2.84412e-05 0)
(0.999143 0.000215694 0)
(0.999217 0.00015869 0)
(0.999392 0.000266501 0)
(0.999455 0.000409569 0)
(0.999429 0.000540295 0)
(0.999447 0.000735664 0)
(0.999565 0.000974602 0)
(0.999587 0.00131423 0)
(0.999511 0.00169221 0)
(0.999379 0.00213518 0)
(0.999159 0.00263152 0)
(1.00007 0.000115776 0)
(1.00021 -0.000116105 0)
(0.999617 -0.000369174 0)
(0.999575 0.000213954 0)
(1.00003 0.000495323 0)
(0.999916 0.000210209 0)
(0.999643 0.000252467 0)
(0.999731 4.38721e-06 0)
(0.999514 -4.34456e-05 0)
(0.999157 0.000210708 0)
(0.999218 0.000250295 0)
(0.999412 0.000339943 0)
(0.999484 0.000503411 0)
(0.999467 0.000651094 0)
(0.999502 0.000856542 0)
(0.999647 0.00109426 0)
(0.9997 0.00140431 0)
(0.999651 0.00177952 0)
(0.999551 0.00217778 0)
(0.999353 0.00262673 0)
(1.00006 0.000102583 0)
(1.00018 -9.39965e-05 0)
(0.999625 -0.000290304 0)
(0.999616 0.000124804 0)
(1.00002 0.000486447 0)
(0.999885 0.000230639 0)
(0.999618 0.000208813 0)
(0.999699 9.47566e-05 0)
(0.999519 1.60501e-05 0)
(0.999178 0.000214415 0)
(0.999226 0.000314676 0)
(0.999432 0.000433656 0)
(0.999515 0.000609417 0)
(0.999509 0.000769404 0)
(0.999563 0.000978503 0)
(0.999727 0.00121598 0)
(0.999813 0.00149253 0)
(0.999791 0.00184409 0)
(0.999717 0.00221079 0)
(0.99954 0.00261221 0)
(1.00006 9.7811e-05 0)
(1.00015 -9.84039e-05 0)
(0.999626 -0.00018903 0)
(0.999653 4.23493e-05 0)
(1.00002 0.000426574 0)
(0.999851 0.000284194 0)
(0.999594 0.000194364 0)
(0.999671 0.000133082 0)
(0.999514 0.000111721 0)
(0.999195 0.000263625 0)
(0.999246 0.000363311 0)
(0.999465 0.000509563 0)
(0.999554 0.000719432 0)
(0.999556 0.000895685 0)
(0.999626 0.00109005 0)
(0.999806 0.00132476 0)
(0.999919 0.00158744 0)
(0.999927 0.00189501 0)
(0.999876 0.00222796 0)
(0.99972 0.00258535 0)
(1.00005 9.5826e-05 0)
(1.00013 -0.000119687 0)
(0.999624 -8.53268e-05 0)
(0.999679 1.51053e-05 0)
(1.00003 0.000318284 0)
(0.999821 0.000339324 0)
(0.999563 0.000225978 0)
(0.999654 0.000147322 0)
(0.999519 0.000191409 0)
(0.999207 0.000366294 0)
(0.999262 0.000445138 0)
(0.999505 0.000574275 0)
(0.999604 0.000804286 0)
(0.999605 0.00100802 0)
(0.999689 0.0011981 0)
(0.999892 0.00142367 0)
(1.00002 0.00168094 0)
(1.00005 0.00194893 0)
(1.00003 0.00223826 0)
(0.999894 0.00255057 0)
(1.00004 9.8599e-05 0)
(1.00011 -0.000146322 0)
(0.999626 -1.04879e-06 0)
(0.999692 4.45627e-05 0)
(1.00005 0.000197717 0)
(0.999809 0.000341406 0)
(0.999529 0.000303886 0)
(0.999636 0.000179871 0)
(0.999535 0.000234079 0)
(0.999228 0.000455512 0)
(0.999276 0.000562344 0)
(0.999545 0.000656695 0)
(0.999667 0.000871657 0)
(0.999668 0.00109714 0)
(0.999758 0.00129638 0)
(0.99998 0.00150706 0)
(1.00013 0.00175538 0)
(1.00017 0.00199814 0)
(1.00017 0.00225048 0)
(1.00005 0.00251863 0)
(1.00003 9.67975e-05 0)
(1.0001 -0.000160227 0)
(0.999635 4.34307e-05 0)
(0.999692 0.000117246 0)
(1.00006 0.000106022 0)
(0.999815 0.000282153 0)
(0.999502 0.000380404 0)
(0.999612 0.000267062 0)
(0.999561 0.000276498 0)
(0.999266 0.000518585 0)
(0.999294 0.000680628 0)
(0.999579 0.000765131 0)
(0.99973 0.000951958 0)
(0.999739 0.00117859 0)
(0.999832 0.00137506 0)
(1.00007 0.00156783 0)
(1.00024 0.0018088 0)
(1.00029 0.00203737 0)
(1.0003 0.00225643 0)
(1.0002 0.00248779 0)
(1.00002 9.66616e-05 0)
(1.0001 -0.00016211 0)
(0.999656 4.71375e-05 0)
(0.999685 0.000202927 0)
(1.00006 7.46764e-05 0)
(0.999841 0.000200809 0)
(0.999499 0.000413147 0)
(0.999586 0.000388326 0)
(0.999578 0.000364583 0)
(0.999318 0.000565256 0)
(0.999328 0.000761893 0)
(0.999616 0.000874623 0)
(0.999797 0.00104546 0)
(0.999815 0.00126584 0)
(0.999906 0.00145491 0)
(1.00016 0.00162134 0)
(1.00035 0.00184348 0)
(1.0004 0.00206991 0)
(1.00042 0.00225751 0)
(1.00033 0.00245421 0)
(1.00002 8.95811e-05 0)
(1.00009 -0.000142498 0)
(0.999686 3.41747e-05 0)
(0.99968 0.000263406 0)
(1.00004 0.0001124 0)
(0.999868 0.000131801 0)
(0.999522 0.000387402 0)
(0.999577 0.000477416 0)
(0.99959 0.000497263 0)
(0.999366 0.000648684 0)
(0.999376 0.000822396 0)
(0.999663 0.00095193 0)
(0.999867 0.00113231 0)
(0.999895 0.00135091 0)
(0.999979 0.00153869 0)
(1.00025 0.0016751 0)
(1.00047 0.00185235 0)
(1.00052 0.00207534 0)
(1.00053 0.00224975 0)
(1.00044 0.00241128 0)
(1.00001 8.30464e-05 0)
(1.00008 -0.000115465 0)
(0.99972 1.65287e-05 0)
(0.999682 0.000280673 0)
(1.00001 0.000179692 0)
(0.999886 0.000125084 0)
(0.999563 0.000345076 0)
(0.999594 0.000512163 0)
(0.99961 0.000627294 0)
(0.999405 0.000785325 0)
(0.999418 0.000904166 0)
(0.999721 0.000997498 0)
(0.999951 0.00118129 0)
(0.999986 0.00142128 0)
(1.00005 0.0016209 0)
(1.00032 0.00174315 0)
(1.00057 0.00186739 0)
(1.00064 0.00206333 0)
(1.00064 0.00223257 0)
(1.00054 0.00236708 0)
(1 7.6074e-05 0)
(1.00007 -8.96598e-05 0)
(0.999754 1.43258e-05 0)
(0.999695 0.000268886 0)
(0.999983 0.000236766 0)
(0.999888 0.000183636 0)
(0.999603 0.000335698 0)
(0.999638 0.000500032 0)
(0.999659 0.000694546 0)
(0.999443 0.000930471 0)
(0.999437 0.0010422 0)
(0.999763 0.00105997 0)
(1.00005 0.00119524 0)
(1.0001 0.00144435 0)
(1.00013 0.00167696 0)
(1.00038 0.00180425 0)
(1.00066 0.0018953 0)
(1.00076 0.00204785 0)
(1.00075 0.00220018 0)
(1.00063 0.00232255 0)
(1 7.084e-05 0)
(1.00006 -6.60771e-05 0)
(0.999783 2.33552e-05 0)
(0.999712 0.000258376 0)
(0.999965 0.000265214 0)
(0.999888 0.000251998 0)
(0.99963 0.000385371 0)
(0.999684 0.000493059 0)
(0.99974 0.000683905 0)
(0.999515 0.0010191 0)
(0.999447 0.00120544 0)
(0.99977 0.00118377 0)
(1.00012 0.00122024 0)
(1.00023 0.0014303 0)
(1.00024 0.0016897 0)
(1.00044 0.00184365 0)
(1.00072 0.00192036 0)
(1.00085 0.00203415 0)
(1.00085 0.00215884 0)
(1.00072 0.00226668 0)
(0.999996 6.83406e-05 0)
(1.00005 -4.96115e-05 0)
(0.999814 4.05471e-05 0)
(0.999732 0.00025883 0)
(0.999954 0.000269735 0)
(0.999896 0.000308089 0)
(0.99965 0.000470655 0)
(0.999713 0.000534754 0)
(0.999835 0.00065767 0)
(0.999633 0.00101221 0)
(0.999482 0.00133518 0)
(0.999743 0.0013548 0)
(1.00015 0.00130402 0)
(1.00035 0.00141301 0)
(1.00037 0.00165491 0)
(1.00051 0.00184032 0)
(1.00077 0.00192157 0)
(1.00093 0.00201134 0)
(1.00093 0.00211684 0)
(1.0008 0.0022026 0)
(0.999994 6.56555e-05 0)
(1.00005 -2.98708e-05 0)
(0.999844 5.40152e-05 0)
(0.999748 0.000272303 0)
(0.999951 0.000280631 0)
(0.999922 0.000325101 0)
(0.999674 0.000550361 0)
(0.999722 0.000637818 0)
(0.999909 0.000657973 0)
(0.999791 0.00094536 0)
(0.999581 0.00134941 0)
(0.999721 0.00150533 0)
(1.00013 0.00144516 0)
(1.00042 0.00144599 0)
(1.0005 0.00160842 0)
(1.0006 0.00179567 0)
(1.00083 0.00189436 0)
(1.00099 0.00196657 0)
(1.001 0.00206377 0)
(1.00087 0.00213626 0)
(0.999992 6.26801e-05 0)
(1.00004 -7.97748e-06 0)
(0.999879 6.09205e-05 0)
(0.999772 0.000288955 0)
(0.999941 0.000309094 0)
(0.999959 0.000335521 0)
(0.999732 0.000580984 0)
(0.999721 0.000742724 0)
(0.999942 0.000733101 0)
(0.999939 0.000886327 0)
(0.999743 0.00127632 0)
(0.999762 0.00155436 0)
(1.00008 0.00158595 0)
(1.00043 0.00153846 0)
(1.00059 0.00159935 0)
(1.0007 0.00173708 0)
(1.00089 0.001842 0)
(1.00105 0.00190228 0)
(1.00107 0.0019855 0)
(1.00094 0.00206711 0)
(0.999992 5.62106e-05 0)
(1.00003 2.15476e-05 0)
(0.999913 6.6151e-05 0)
(0.999799 0.000296888 0)
(0.999937 0.000354909 0)
(0.999994 0.000348371 0)
(0.999804 0.000581517 0)
(0.999753 0.000808153 0)
(0.999946 0.000844405 0)
(1.00005 0.000896212 0)
(0.999929 0.00118163 0)
(0.999876 0.00150139 0)
(1.00008 0.00164512 0)
(1.00039 0.00163754 0)
(1.00062 0.00163783 0)
(1.00077 0.00170107 0)
(1.00094 0.00177659 0)
(1.0011 0.00182674 0)
(1.00114 0.00188788 0)
(1.00102 0.00197696 0)
(0.999993 4.99507e-05 0)
(1.00002 5.03141e-05 0)
(0.999945 7.79591e-05 0)
(0.999841 0.000289194 0)
(0.999926 0.000404303 0)
(1.00002 0.000387558 0)
(0.9999 0.000565569 0)
(0.99981 0.000830121 0)
(0.999954 0.000928953 0)
(1.0001 0.000961711 0)
(1.00008 0.00112267 0)
(1.00004 0.00139979 0)
(1.00014 0.00160611 0)
(1.00038 0.0016766 0)
(1.00061 0.00168469 0)
(1.00079 0.00170459 0)
(1.00097 0.0017272 0)
(1.00113 0.00175229 0)
(1.00121 0.00178922 0)
(1.00112 0.00185995 0)
(0.999994 4.37349e-05 0)
(1.00002 7.52361e-05 0)
(0.999967 0.000101944 0)
(0.999884 0.000276379 0)
(0.999938 0.000428678 0)
(1.00003 0.000452058 0)
(0.999978 0.000564261 0)
(0.999902 0.000803856 0)
(0.999985 0.000973033 0)
(1.00013 0.00102557 0)
(1.00019 0.00112712 0)
(1.00019 0.00131203 0)
(1.00026 0.00151041 0)
(1.00042 0.00163505 0)
(1.00061 0.00168338 0)
(1.00077 0.00170982 0)
(1.00095 0.00170567 0)
(1.00113 0.00169308 0)
(1.00124 0.00170356 0)
(1.00121 0.00173797 0)
(0.999995 4.10621e-05 0)
(1.00001 9.28088e-05 0)
(0.999984 0.000130047 0)
(0.999929 0.00027115 0)
(0.999955 0.000437754 0)
(1.00004 0.000497713 0)
(1.00004 0.000590859 0)
(0.999997 0.000781755 0)
(1.00005 0.000958383 0)
(1.00017 0.0010657 0)
(1.00025 0.00114188 0)
(1.0003 0.00127107 0)
(1.00038 0.00141094 0)
(1.0005 0.00154184 0)
(1.00064 0.00162417 0)
(1.00077 0.00167379 0)
(1.0009 0.00169157 0)
(1.00108 0.00166469 0)
(1.00122 0.00164633 0)
(1.00127 0.00164864 0)
(0.999996 4.0968e-05 0)
(1.00001 0.000102076 0)
(0.999994 0.000161025 0)
(0.999967 0.000272968 0)
(0.999989 0.000430171 0)
(1.00005 0.000535564 0)
(1.00009 0.000614739 0)
(1.00008 0.000770362 0)
(1.00013 0.000926598 0)
(1.00022 0.00105148 0)
(1.00031 0.00114676 0)
(1.00037 0.00124495 0)
(1.00046 0.00134778 0)
(1.00058 0.00144149 0)
(1.0007 0.00152892 0)
(1.0008 0.00159304 0)
(1.00088 0.00164138 0)
(1.00101 0.00164192 0)
(1.00116 0.00161076 0)
(1.00126 0.00159799 0)
(0.999996 4.3168e-05 0)
(1.00001 0.000107888 0)
(1 0.000181167 0)
(0.999996 0.000286968 0)
(1.00002 0.00042008 0)
(1.00008 0.000543082 0)
(1.00012 0.000636866 0)
(1.00015 0.000760474 0)
(1.0002 0.000897349 0)
(1.00029 0.00101212 0)
(1.00037 0.00111495 0)
(1.00043 0.00121137 0)
(1.00052 0.00129451 0)
(1.00064 0.00136273 0)
(1.00076 0.00142675 0)
(1.00085 0.00148995 0)
(1.00091 0.00155025 0)
(1.00097 0.00158561 0)
(1.00109 0.00157562 0)
(1.0012 0.00155923 0)
(0.999997 4.46804e-05 0)
(1.00001 0.000114308 0)
(1.00002 0.000192688 0)
(1.00002 0.000298743 0)
(1.00006 0.000414485 0)
(1.00011 0.000534988 0)
(1.00016 0.000638703 0)
(1.0002 0.000751078 0)
(1.00026 0.000862627 0)
(1.00035 0.000966749 0)
(1.00043 0.00105907 0)
(1.00049 0.00115295 0)
(1.00056 0.00123577 0)
(1.00067 0.00129175 0)
(1.0008 0.00133974 0)
(1.0009 0.00138498 0)
(1.00096 0.00143768 0)
(1.00098 0.00148879 0)
(1.00105 0.00151059 0)
(1.00113 0.00150342 0)
(0.999998 4.50474e-05 0)
(1.00001 0.00012019 0)
(1.00003 0.000197412 0)
(1.00004 0.000303773 0)
(1.00009 0.000409377 0)
(1.00014 0.000519651 0)
(1.0002 0.000621593 0)
(1.00025 0.000726732 0)
(1.00031 0.000827938 0)
(1.0004 0.000912564 0)
(1.00048 0.000996235 0)
(1.00055 0.00107462 0)
(1.00061 0.00115732 0)
(1.0007 0.00121424 0)
(1.00081 0.00125443 0)
(1.00092 0.00128767 0)
(1.001 0.00132211 0)
(1.00103 0.00136833 0)
(1.00104 0.00140644 0)
(1.00108 0.0014179 0)
(0.999999 4.42088e-05 0)
(1.00001 0.000123541 0)
(1.00004 0.000198143 0)
(1.00006 0.000298961 0)
(1.00011 0.000400212 0)
(1.00018 0.00049806 0)
(1.00024 0.000593229 0)
(1.00029 0.000686472 0)
(1.00036 0.000780393 0)
(1.00044 0.000854483 0)
(1.00053 0.000923459 0)
(1.0006 0.000990489 0)
(1.00066 0.00106071 0)
(1.00072 0.00112124 0)
(1.00082 0.00116094 0)
(1.00093 0.00118837 0)
(1.00102 0.00121257 0)
(1.00106 0.001241 0)
(1.00107 0.00127799 0)
(1.00108 0.00130304 0)
(1 4.24544e-05 0)
(1.00002 0.000122503 0)
(1.00005 0.000194635 0)
(1.00008 0.00028565 0)
(1.00013 0.000381931 0)
(1.0002 0.000469969 0)
(1.00027 0.00055487 0)
(1.00034 0.00063558 0)
(1.0004 0.000717705 0)
(1.00048 0.000786346 0)
(1.00056 0.000844394 0)
(1.00064 0.000899211 0)
(1.0007 0.000957052 0)
(1.00076 0.0010119 0)
(1.00083 0.00105421 0)
(1.00092 0.00108086 0)
(1.00101 0.00110096 0)
(1.00107 0.00111791 0)
(1.00109 0.00114439 0)
(1.00109 0.00117109 0)
(1 3.98319e-05 0)
(1.00002 0.000116497 0)
(1.00006 0.000185597 0)
(1.0001 0.000265295 0)
(1.00015 0.000352975 0)
(1.00022 0.000432215 0)
(1.0003 0.000506298 0)
(1.00037 0.000574798 0)
(1.00043 0.000643804 0)
(1.00051 0.000704925 0)
(1.00059 0.000756143 0)
(1.00067 0.000800696 0)
(1.00074 0.000846846 0)
(1.00079 0.000892818 0)
(1.00085 0.000933233 0)
(1.00092 0.000962212 0)
(1.001 0.000981946 0)
(1.00106 0.00099728 0)
(1.0011 0.00101461 0)
(1.00111 0.00103657 0)
(1 3.61943e-05 0)
(1.00002 0.000105455 0)
(1.00006 0.000169611 0)
(1.00011 0.000237557 0)
(1.00017 0.000313358 0)
(1.00024 0.00038306 0)
(1.00032 0.000446169 0)
(1.0004 0.000502988 0)
(1.00047 0.000558924 0)
(1.00054 0.000611074 0)
(1.00061 0.00065535 0)
(1.00069 0.000693034 0)
(1.00076 0.000728332 0)
(1.00081 0.000764681 0)
(1.00087 0.000798833 0)
(1.00093 0.000826824 0)
(1.00099 0.000847646 0)
(1.00105 0.00086362 0)
(1.0011 0.000878394 0)
(1.00113 0.000897043 0)
(1 3.1627e-05 0)
(1.00002 9.03708e-05 0)
(1.00006 0.000146317 0)
(1.00012 0.000201853 0)
(1.00018 0.000262174 0)
(1.00026 0.000319413 0)
(1.00034 0.00036981 0)
(1.00042 0.000414006 0)
(1.00049 0.000456246 0)
(1.00056 0.000497029 0)
(1.00063 0.000533404 0)
(1.00071 0.000564216 0)
(1.00077 0.000591271 0)
(1.00083 0.000618028 0)
(1.00088 0.000644243 0)
(1.00093 0.000667613 0)
(1.00099 0.000685638 0)
(1.00105 0.000699093 0)
(1.0011 0.000710169 0)
(1.00114 0.000722753 0)
(1 2.67949e-05 0)
(1.00002 7.65247e-05 0)
(1.00007 0.000125763 0)
(1.00012 0.000174232 0)
(1.00019 0.000225095 0)
(1.00026 0.000274577 0)
(1.00034 0.000318965 0)
(1.00043 0.000357634 0)
(1.0005 0.000393 0)
(1.00058 0.000427432 0)
(1.00065 0.000459791 0)
(1.00071 0.00048847 0)
(1.00078 0.000513499 0)
(1.00084 0.000536907 0)
(1.00089 0.000559838 0)
(1.00094 0.000581391 0)
(1.00098 0.000599715 0)
(1.00103 0.000614121 0)
(1.00109 0.000625383 0)
(1.00113 0.000635438 0)
(1 1.2244e-05 0)
(1.00003 3.54648e-05 0)
(1.00007 5.92413e-05 0)
(1.00013 8.34052e-05 0)
(1.0002 0.000108353 0)
(1.00028 0.000133042 0)
(1.00036 0.000155786 0)
(1.00044 0.000175814 0)
(1.00052 0.00019383 0)
(1.0006 0.000211096 0)
(1.00067 0.000227569 0)
(1.00074 0.000242652 0)
(1.0008 0.00025601 0)
(1.00086 0.00026821 0)
(1.00091 0.000279966 0)
(1.00096 0.000291354 0)
(1.001 0.00030188 0)
(1.00105 0.000310978 0)
(1.0011 0.00031861 0)
(1.00114 0.000325171 0)
(0.983286 0.00212189 0)
(0.959307 0.00329532 0)
(0.935139 0.00368212 0)
(0.910382 0.00368322 0)
(0.88524 0.00362083 0)
(0.859718 0.00359665 0)
(0.834036 0.00359187 0)
(0.80788 0.0035912 0)
(0.781232 0.0035711 0)
(0.753995 0.00352771 0)
(0.726322 0.0034829 0)
(0.698055 0.00342918 0)
(0.6693 0.00335062 0)
(0.64026 0.00329626 0)
(0.610539 0.00322575 0)
(0.580613 0.00313544 0)
(0.550148 0.00308792 0)
(0.519206 0.00302162 0)
(0.488268 0.00293043 0)
(0.45691 0.00289857 0)
(0.425256 0.00277139 0)
(0.394102 0.00248698 0)
(0.363806 0.00226925 0)
(0.334786 0.00204436 0)
(0.308146 0.00167727 0)
(0.284446 0.00113831 0)
(0.264384 0.00054911 0)
(0.248774 3.81998e-05 0)
(0.237828 -0.000319152 0)
(0.230624 -0.000469085 0)
(0.225599 -0.000439971 0)
(0.221666 -0.000410687 0)
(0.218372 -0.000438798 0)
(0.215697 -0.000443581 0)
(0.213813 -0.000422335 0)
(0.212514 -0.000387515 0)
(0.211212 -0.000280288 0)
(0.209421 -0.000192311 0)
(0.207301 -0.00016461 0)
(0.205266 -0.000127839 0)
(0.203373 -9.70146e-05 0)
(0.201391 -8.36135e-05 0)
(0.199292 -5.95102e-05 0)
(0.197067 -4.08334e-05 0)
(0.194838 -4.13644e-05 0)
(0.19272 -3.70975e-05 0)
(0.190757 -2.60219e-05 0)
(0.188894 -2.62498e-05 0)
(0.187273 -3.01576e-05 0)
(0.185886 -2.30581e-05 0)
(0.184676 -1.45546e-05 0)
(0.183563 -1.13804e-05 0)
(0.182604 -3.256e-06 0)
(0.181683 5.83093e-06 0)
(0.180846 1.32417e-06 0)
(0.180135 -1.64292e-06 0)
(0.179567 7.34108e-06 0)
(0.179068 8.43131e-06 0)
(0.178753 1.17453e-06 0)
(0.178551 2.70882e-06 0)
(0.17834 1.01402e-05 0)
(0.178113 8.34776e-06 0)
(0.178016 4.37022e-06 0)
(0.17802 4.86635e-06 0)
(0.178027 8.03443e-06 0)
(0.178028 7.05247e-06 0)
(0.178067 4.39109e-06 0)
(0.178135 3.49388e-06 0)
(0.178197 2.70267e-06 0)
(0.178245 1.67583e-06 0)
(0.178293 3.5847e-07 0)
(0.178334 9.88374e-08 0)
(0.17838 -4.41278e-07 0)
(0.17841 -5.63331e-07 0)
(0.178451 -8.31098e-07 0)
(0.178474 -9.59362e-07 0)
(0.178511 -9.22225e-07 0)
(0.178525 -9.03342e-07 0)
(0.178556 -6.66714e-07 0)
(0.178561 -4.68782e-07 0)
(0.178587 -3.62107e-07 0)
(0.17858 -7.39413e-08 0)
(0.178606 -1.84652e-07 0)
(0.178587 8.39026e-08 0)
(0.178616 -8.96166e-08 0)
(0.178589 -1.60212e-08 0)
(0.178622 6.70961e-08 0)
(0.178588 -1.35678e-07 0)
(0.178624 1.53505e-07 0)
(0.178584 -8.0825e-08 0)
(0.178626 3.65467e-08 0)
(0.178573 2.0307e-07 0)
(0.178626 -1.61442e-07 0)
(0.178553 4.35697e-07 0)
(0.17862 -1.92319e-08 0)
(0.178517 3.87634e-07 0)
(0.1786 5.44162e-07 0)
(0.178447 1.59037e-07 0)
(0.178573 1.86135e-06 0)
(0.178233 3.41986e-06 0)
(0.99582 0.00404372 0)
(0.995033 0.00577708 0)
(0.993948 0.00641777 0)
(0.992294 0.00640162 0)
(0.990283 0.0062496 0)
(0.987663 0.00618422 0)
(0.984743 0.00619891 0)
(0.981096 0.00627443 0)
(0.976791 0.00635004 0)
(0.971731 0.00642697 0)
(0.965844 0.00650198 0)
(0.959304 0.00658555 0)
(0.951723 0.00664648 0)
(0.943552 0.00669371 0)
(0.93427 0.00675538 0)
(0.924123 0.00677104 0)
(0.913088 0.00679702 0)
(0.900799 0.00681247 0)
(0.887927 0.00680951 0)
(0.873816 0.0068276 0)
(0.8588 0.00681424 0)
(0.842904 0.00669578 0)
(0.826117 0.00648337 0)
(0.809011 0.00615269 0)
(0.791409 0.00566437 0)
(0.774207 0.00506459 0)
(0.757853 0.00437458 0)
(0.742133 0.00355488 0)
(0.728264 0.00270899 0)
(0.715926 0.00201162 0)
(0.704059 0.00158548 0)
(0.693434 0.0013897 0)
(0.683411 0.00125014 0)
(0.673131 0.00107292 0)
(0.663961 0.000847716 0)
(0.65532 0.000680535 0)
(0.646155 0.000702026 0)
(0.637199 0.00076279 0)
(0.628379 0.00068843 0)
(0.619557 0.000590114 0)
(0.61168 0.0005556 0)
(0.60423 0.000548888 0)
(0.596583 0.000548328 0)
(0.589042 0.000543869 0)
(0.581847 0.000510108 0)
(0.574634 0.000458703 0)
(0.567748 0.000423035 0)
(0.561343 0.000385915 0)
(0.555364 0.000318205 0)
(0.54968 0.000261772 0)
(0.544709 0.000233082 0)
(0.540091 0.000193739 0)
(0.535761 0.000159079 0)
(0.531856 0.000149596 0)
(0.52856 0.000126837 0)
(0.525375 9.33867e-05 0)
(0.522543 8.01359e-05 0)
(0.520215 5.82978e-05 0)
(0.518381 2.65556e-05 0)
(0.516698 1.97123e-05 0)
(0.515277 2.96965e-05 0)
(0.514113 1.61498e-05 0)
(0.513223 -4.224e-06 0)
(0.512532 -1.01222e-05 0)
(0.512031 -6.04204e-06 0)
(0.511706 -9.81552e-06 0)
(0.511521 -1.52499e-05 0)
(0.511455 -1.41266e-05 0)
(0.511452 -1.06893e-05 0)
(0.511481 -7.9604e-06 0)
(0.511542 -7.30348e-06 0)
(0.511596 -5.46511e-06 0)
(0.511696 -4.68609e-06 0)
(0.511758 -3.50601e-06 0)
(0.511885 -2.87978e-06 0)
(0.511952 -2.37327e-06 0)
(0.512092 -1.52406e-06 0)
(0.512151 -1.56631e-06 0)
(0.51228 -8.87707e-07 0)
(0.51231 -9.88908e-07 0)
(0.512418 -7.2893e-07 0)
(0.512405 -4.28424e-07 0)
(0.512504 -6.65951e-07 0)
(0.512446 -1.11559e-07 0)
(0.512551 -3.45963e-07 0)
(0.512458 -1.84974e-07 0)
(0.512572 2.5123e-07 0)
(0.512461 -4.75505e-07 0)
(0.512578 6.0402e-07 0)
(0.512459 -3.21517e-07 0)
(0.512583 2.98269e-07 0)
(0.512439 4.46213e-07 0)
(0.512601 -4.36991e-08 0)
(0.512392 9.19511e-07 0)
(0.512616 6.87334e-07 0)
(0.512333 7.9791e-07 0)
(0.512593 2.1298e-06 0)
(0.512253 1.22457e-06 0)
(0.512535 3.35016e-06 0)
(0.512088 1.18689e-05 0)
(0.996478 0.00355585 0)
(0.996087 0.004696 0)
(0.99593 0.00536599 0)
(0.995802 0.00552628 0)
(0.995851 0.00549009 0)
(0.995916 0.00548281 0)
(0.99614 0.0055267 0)
(0.996268 0.00569023 0)
(0.99624 0.00585371 0)
(0.996091 0.00604603 0)
(0.995711 0.0062229 0)
(0.995254 0.00640396 0)
(0.994473 0.00657982 0)
(0.993555 0.00671193 0)
(0.992283 0.00690757 0)
(0.990646 0.00702812 0)
(0.988704 0.00716926 0)
(0.986211 0.00733054 0)
(0.983609 0.00742748 0)
(0.980512 0.00758415 0)
(0.97709 0.00769539 0)
(0.973316 0.00772064 0)
(0.968896 0.00755573 0)
(0.96408 0.00726908 0)
(0.958724 0.00691519 0)
(0.953174 0.00636257 0)
(0.947649 0.00568371 0)
(0.94186 0.00485317 0)
(0.936177 0.00385493 0)
(0.93059 0.003069 0)
(0.92481 0.00265984 0)
(0.919413 0.00240314 0)
(0.914321 0.00224868 0)
(0.908828 0.00211008 0)
(0.903631 0.00179293 0)
(0.898503 0.00162744 0)
(0.892991 0.00177074 0)
(0.887731 0.00187113 0)
(0.882543 0.00180489 0)
(0.876903 0.00169601 0)
(0.871536 0.00157996 0)
(0.866145 0.00152655 0)
(0.860457 0.00153669 0)
(0.854576 0.00151064 0)
(0.848785 0.00143856 0)
(0.842843 0.00136771 0)
(0.837062 0.00129483 0)
(0.831493 0.00119725 0)
(0.826416 0.00108027 0)
(0.821366 0.00098561 0)
(0.816655 0.000905352 0)
(0.812019 0.000816247 0)
(0.807484 0.000743309 0)
(0.802958 0.00067594 0)
(0.79896 0.000588839 0)
(0.794961 0.000516917 0)
(0.791207 0.000466239 0)
(0.787772 0.000380386 0)
(0.784818 0.000291141 0)
(0.781937 0.000254792 0)
(0.779384 0.000238075 0)
(0.777109 0.000183329 0)
(0.775134 0.000126383 0)
(0.773352 9.69619e-05 0)
(0.771844 7.88189e-05 0)
(0.770574 4.96377e-05 0)
(0.769516 2.4265e-05 0)
(0.768642 1.09365e-05 0)
(0.767952 4.01746e-06 0)
(0.767377 -1.92139e-06 0)
(0.766976 -6.97507e-06 0)
(0.766619 -9.41057e-06 0)
(0.766452 -1.13091e-05 0)
(0.766259 -1.28523e-05 0)
(0.766271 -1.38772e-05 0)
(0.766218 -1.4803e-05 0)
(0.766374 -1.38482e-05 0)
(0.766437 -1.33643e-05 0)
(0.766678 -1.06771e-05 0)
(0.766784 -8.9702e-06 0)
(0.767035 -6.2321e-06 0)
(0.767095 -4.3473e-06 0)
(0.767319 -2.94137e-06 0)
(0.767286 -1.65749e-06 0)
(0.767487 -1.088e-06 0)
(0.767376 -8.19997e-07 0)
(0.767559 7.12182e-08 0)
(0.767417 -8.62059e-07 0)
(0.767575 7.2379e-07 0)
(0.767433 -6.62145e-07 0)
(0.767582 7.04599e-07 0)
(0.767416 2.25847e-07 0)
(0.767606 5.18006e-07 0)
(0.767371 1.22057e-06 0)
(0.76762 1.11301e-06 0)
(0.767333 2.0039e-06 0)
(0.767587 2.85163e-06 0)
(0.767287 3.28516e-06 0)
(0.767519 4.08841e-06 0)
(0.767193 1.93446e-05 0)
(0.997112 0.00340411 0)
(0.99671 0.00441988 0)
(0.996467 0.00515192 0)
(0.996347 0.00551526 0)
(0.996407 0.00562793 0)
(0.99664 0.00567118 0)
(0.997033 0.00568135 0)
(0.997463 0.00580944 0)
(0.997811 0.00595682 0)
(0.998133 0.00615708 0)
(0.998441 0.00635053 0)
(0.998748 0.00654428 0)
(0.999035 0.0067464 0)
(0.999317 0.00690864 0)
(0.999519 0.00712289 0)
(0.999634 0.00725244 0)
(0.99964 0.00742913 0)
(0.999508 0.00761857 0)
(0.999487 0.00772407 0)
(0.99942 0.00788634 0)
(0.999387 0.00802439 0)
(0.999379 0.00804578 0)
(0.999146 0.00784702 0)
(0.998705 0.00759058 0)
(0.998047 0.00727618 0)
(0.997316 0.00672166 0)
(0.996564 0.00604985 0)
(0.995537 0.00525275 0)
(0.994266 0.00430782 0)
(0.992559 0.00354189 0)
(0.99053 0.00311237 0)
(0.988765 0.00284028 0)
(0.987114 0.00268822 0)
(0.985215 0.00255416 0)
(0.983448 0.00224962 0)
(0.981382 0.00207723 0)
(0.979242 0.00222247 0)
(0.977632 0.00230791 0)
(0.976065 0.0022035 0)
(0.974026 0.00207094 0)
(0.972173 0.00195696 0)
(0.97022 0.00193311 0)
(0.968071 0.001979 0)
(0.965676 0.0019778 0)
(0.963254 0.00191418 0)
(0.960496 0.0018332 0)
(0.957804 0.00174609 0)
(0.955115 0.00161856 0)
(0.952689 0.00145099 0)
(0.95012 0.00132592 0)
(0.947944 0.00123978 0)
(0.945755 0.00114545 0)
(0.943662 0.00107649 0)
(0.941401 0.00101429 0)
(0.939399 0.000913204 0)
(0.937053 0.000825917 0)
(0.934876 0.000765475 0)
(0.932752 0.000656438 0)
(0.930873 0.000539946 0)
(0.928852 0.000489218 0)
(0.927133 0.000459317 0)
(0.925477 0.000380707 0)
(0.923975 0.000300425 0)
(0.922498 0.000253844 0)
(0.921262 0.000220016 0)
(0.920109 0.000172259 0)
(0.919105 0.000130465 0)
(0.918159 0.000102357 0)
(0.917394 8.296e-05 0)
(0.916656 6.3751e-05 0)
(0.916105 4.69536e-05 0)
(0.915532 3.32151e-05 0)
(0.915185 2.1582e-05 0)
(0.91477 1.07628e-05 0)
(0.914607 1.41772e-06 0)
(0.914349 -7.31494e-06 0)
(0.914346 -1.36354e-05 0)
(0.914239 -1.94084e-05 0)
(0.914365 -2.1086e-05 0)
(0.914377 -2.21358e-05 0)
(0.914601 -1.95563e-05 0)
(0.91466 -1.68745e-05 0)
(0.914928 -1.28852e-05 0)
(0.914947 -9.22065e-06 0)
(0.915206 -6.19704e-06 0)
(0.915147 -3.91563e-06 0)
(0.915362 -1.85983e-06 0)
(0.915257 -1.77287e-06 0)
(0.915415 3.73952e-07 0)
(0.915307 -9.61935e-07 0)
(0.91543 9.4657e-07 0)
(0.915307 2.09738e-07 0)
(0.915449 6.18358e-07 0)
(0.915276 1.90756e-06 0)
(0.915458 9.40673e-07 0)
(0.915251 3.20755e-06 0)
(0.915431 3.03966e-06 0)
(0.915227 5.10685e-06 0)
(0.915371 4.19323e-06 0)
(0.915172 2.285e-05 0)
(0.997503 0.00335104 0)
(0.997109 0.00426318 0)
(0.996793 0.00497468 0)
(0.996641 0.00542504 0)
(0.996648 0.00562289 0)
(0.996889 0.00572448 0)
(0.997285 0.00572276 0)
(0.997734 0.00580361 0)
(0.998118 0.00592375 0)
(0.998443 0.00611456 0)
(0.998813 0.0063135 0)
(0.999159 0.00649682 0)