/*--------------------------------*- C++ -*----------------------------------*\
  =========                 |
  \\      /  F ield         | OpenFOAM: The Open Source CFD Toolbox
   \\    /   O peration     | Website:  https://openfoam.org
    \\  /    A nd           | Version:  10
     \\/     M anipulation  |
\*---------------------------------------------------------------------------*/
FoamFile
{
    format      ascii;
    class       volScalarField;
    location    "0.5";
    object      p;
}
// * * * * * * * * * * * * * * * * * * * * * * * * * * * * * * * * * * * * * //

dimensions      [0 2 -2 0 0 0 0];

internalField   nonuniform List<scalar> 
4800
(
-6.2287e-11
3.12305e-05
7.44196e-05
0.000202414
0.000208029
0.000224714
0.000261969
0.000329022
0.000343412
0.000324653
0.000324722
0.000376321
0.000399603
0.000391397
0.000451078
0.000640611
0.00100627
0.00152462
0.00204386
0.00263308
4.94117e-06
2.5927e-05
7.62641e-05
0.000190098
0.000211759
0.000219831
0.000271934
0.000322887
0.000351844
0.000321997
0.000335716
0.00037888
0.000408661
0.000393697
0.000454503
0.000631558
0.000978897
0.00141368
0.00183136
0.00227955
6.08533e-06
2.29681e-05
7.67586e-05
0.000190871
0.000211615
0.000218273
0.000274044
0.000321452
0.000356151
0.000323637
0.000340577
0.000383999
0.000413477
0.000397064
0.000449931
0.000614126
0.000912179
0.0012753
0.00163079
0.00201755
1.12149e-05
1.70102e-05
7.75132e-05
0.000179409
0.000211858
0.00021765
0.000275268
0.00032358
0.000355667
0.000331458
0.00033737
0.000395641
0.000416762
0.000398537
0.00044023
0.0005761
0.000825739
0.00112877
0.0014383
0.00178554
1.28234e-05
1.27988e-05
7.71832e-05
0.000173161
0.000210427
0.000218677
0.000274446
0.000328195
0.000354105
0.000345653
0.000339741
0.00040268
0.000424455
0.000394317
0.000416563
0.000511774
0.000720796
0.000984134
0.00124965
0.00155726
1.6736e-05
8.85696e-06
7.52397e-05
0.000167275
0.000206395
0.000222491
0.00027164
0.000334876
0.000355347
0.000351961
0.00036284
0.000406621
0.000426469
0.000380198
0.00037139
0.000433685
0.000609648
0.000840936
0.00106155
0.00132998
1.84317e-05
5.98785e-06
7.16875e-05
0.00016256
0.000200514
0.000226885
0.000270329
0.000338331
0.000362654
0.000351836
0.000373263
0.000413455
0.000418927
0.000352018
0.000313851
0.000348938
0.000493846
0.000693426
0.00087328
0.00110388
1.98452e-05
5.26902e-06
6.62245e-05
0.000158307
0.000193683
0.000229082
0.000274037
0.000337751
0.000372271
0.000359544
0.00037773
0.000420345
0.000403405
0.000306427
0.000246052
0.000260546
0.000373699
0.000539521
0.00068553
0.000880703
1.93304e-05
6.86657e-06
5.95674e-05
0.000153147
0.000189457
0.00022728
0.000282114
0.000338037
0.000378524
0.000373125
0.000368672
0.000410843
0.000378048
0.000253637
0.000171132
0.000168826
0.000250268
0.000379822
0.000496592
0.000660128
1.72379e-05
1.09886e-05
5.30678e-05
0.000144895
0.000188393
0.000222619
0.00028878
0.0003451
0.000379862
0.000386607
0.000376056
0.000384868
0.000337449
0.000195392
9.22658e-05
7.18261e-05
0.000122795
0.000216338
0.000306196
0.00044364
1.33205e-05
1.60825e-05
4.94357e-05
0.000132739
0.000191034
0.000219661
0.000290745
0.000357766
0.000382908
0.000387905
0.000377465
0.000357766
0.000283903
0.000130615
8.69037e-06
-3.22093e-05
-9.67212e-06
5.06033e-05
0.000115066
0.000231499
7.94783e-06
2.07822e-05
4.99371e-05
0.000117852
0.000187647
0.000222045
0.000288152
0.000369283
0.000391283
0.000373741
0.00036267
0.000328487
0.000229904
6.02371e-05
-8.01839e-05
-0.000141348
-0.000146246
-0.000118235
-7.74216e-05
2.15424e-05
1.79634e-06
2.30833e-05
5.51131e-05
0.000103534
0.000177972
0.00022869
0.000287646
0.000372344
0.000402881
0.000366517
0.000328535
0.000286242
0.000174402
-1.25307e-05
-0.000174218
-0.000254892
-0.000285189
-0.000289508
-0.00027097
-0.000186663
-3.85479e-06
2.18787e-05
6.22023e-05
9.1547e-05
0.000161028
0.000235449
0.000292386
0.000366457
0.000404741
0.00036474
0.000295407
0.000230132
0.000110188
-8.79596e-05
-0.000271581
-0.000374982
-0.000427424
-0.000461112
-0.000464611
-0.000392446
-8.55514e-06
1.66231e-05
6.70334e-05
9.31405e-05
0.000138856
0.000228567
0.000302325
0.000362394
0.000390246
0.000351738
0.000266338
0.000173503
3.70914e-05
-0.000169165
-0.000371837
-0.000500647
-0.00057338
-0.000631197
-0.000657082
-0.000596515
-1.24642e-05
9.00556e-06
6.65271e-05
0.000101751
0.000124998
0.000206436
0.000306384
0.000365712
0.000367048
0.000321677
0.000233372
0.0001205
-3.73295e-05
-0.00025665
-0.000476349
-0.000628963
-0.00072201
-0.000800076
-0.000847392
-0.000799358
-1.5952e-05
2.20799e-06
5.91693e-05
0.000111719
0.000124172
0.000176094
0.000289702
0.000368545
0.000350724
0.000278544
0.00018767
6.66954e-05
-0.000110725
-0.000346985
-0.000584853
-0.000760124
-0.000871937
-0.000967072
-0.00103349
-0.000998247
-2.08534e-05
-2.53165e-06
4.65197e-05
0.000114529
0.000140271
0.000155492
0.000248083
0.00034989
0.00034195
0.00024161
0.000129832
4.386e-06
-0.000185935
-0.000438776
-0.000695598
-0.000894872
-0.00102319
-0.00113021
-0.00121274
-0.00118976
-2.73205e-05
-5.55899e-06
3.49676e-05
0.000106494
0.000155063
0.000149355
0.000195707
0.000300169
0.000318811
0.000215078
7.72286e-05
-6.48664e-05
-0.00026505
-0.000533288
-0.000808131
-0.00103105
-0.00117668
-0.0012903
-0.0013836
-0.00137193
-3.52993e-05
-9.13727e-06
2.6834e-05
8.76571e-05
0.000158112
0.000160716
0.000156501
0.000221481
0.000263749
0.000184933
3.55065e-05
-0.000128283
-0.000345145
-0.000629469
-0.000922286
-0.00116648
-0.00133215
-0.00145121
-0.00154742
-0.00154402
-4.43608e-05
-1.45853e-05
2.13509e-05
6.66419e-05
0.000143484
0.00016839
0.000138148
0.000145878
0.000172988
0.00012612
-4.87369e-06
-0.000180971
-0.000416254
-0.000720391
-0.00103462
-0.00130097
-0.00148719
-0.00161422
-0.00170813
-0.00170694
-5.36583e-05
-2.34042e-05
1.59878e-05
4.77972e-05
0.000112052
0.000158637
0.000130974
8.69496e-05
7.16331e-05
3.29038e-05
-6.82058e-05
-0.000230913
-0.000475238
-0.000797722
-0.00113681
-0.0014305
-0.00163841
-0.00177583
-0.00186797
-0.00186436
-6.27991e-05
-3.54673e-05
6.16767e-06
3.11102e-05
7.50748e-05
0.000127819
0.000114044
4.58356e-05
-1.83514e-05
-7.84164e-05
-0.000161947
-0.000299067
-0.000529694
-0.000860346
-0.00122003
-0.00154147
-0.0017797
-0.0019313
-0.00202375
-0.00201846
-7.32072e-05
-4.93717e-05
-8.79326e-06
1.34305e-05
3.70084e-05
7.76381e-05
7.9316e-05
7.86392e-06
-9.21483e-05
-0.000185566
-0.000277143
-0.000394273
-0.000598293
-0.000916452
-0.00128448
-0.00162653
-0.00189663
-0.00207221
-0.00216855
-0.00216453
-8.49881e-05
-6.58742e-05
-2.92906e-05
-8.79123e-06
-2.03283e-06
2.01532e-05
2.43321e-05
-3.98234e-05
-0.000157038
-0.000282414
-0.000393245
-0.000510253
-0.00068921
-0.00098111
-0.00134115
-0.00168917
-0.00198118
-0.00218324
-0.00229294
-0.00229496
-9.91231e-05
-8.42794e-05
-5.54192e-05
-3.79658e-05
-4.32966e-05
-4.18779e-05
-4.37864e-05
-0.000101545
-0.000224396
-0.000370471
-0.000503584
-0.000628897
-0.000798357
-0.00106149
-0.00140118
-0.00174316
-0.00203708
-0.00225734
-0.0023858
-0.00239971
-0.00011648
-0.000106603
-8.57656e-05
-7.3314e-05
-8.92781e-05
-0.00010794
-0.000121639
-0.00017564
-0.000297547
-0.000457038
-0.000607468
-0.000743848
-0.00090911
-0.00115373
-0.00146909
-0.00179795
-0.00208374
-0.00230236
-0.0024424
-0.00247018
-0.000137353
-0.00013219
-0.000122092
-0.00011589
-0.000140181
-0.000177914
-0.000206907
-0.000260178
-0.00037705
-0.000542796
-0.000708808
-0.000855385
-0.00101663
-0.0012441
-0.00154104
-0.00185333
-0.00212868
-0.00233813
-0.00247225
-0.00250627
-0.000163197
-0.000162025
-0.00016335
-0.00016626
-0.00019672
-0.000250699
-0.000297642
-0.000354721
-0.000464301
-0.000628548
-0.000805129
-0.000964313
-0.0011226
-0.00132951
-0.00160576
-0.00190535
-0.00216943
-0.00237104
-0.00249394
-0.00252196
-0.000194315
-0.000197023
-0.000209345
-0.000223742
-0.00026002
-0.000325415
-0.000391713
-0.000457055
-0.00055932
-0.000716998
-0.000896939
-0.00106565
-0.00122749
-0.00141444
-0.00166128
-0.0019458
-0.00220239
-0.00239635
-0.00251109
-0.00253027
-0.0002315
-0.000237447
-0.000259761
-0.000287951
-0.000330494
-0.000402987
-0.00048551
-0.000564189
-0.000662797
-0.000808786
-0.000986432
-0.00115908
-0.00132452
-0.00150159
-0.00171375
-0.00197197
-0.00222021
-0.00240735
-0.00251748
-0.00253207
-0.000274701
-0.000284656
-0.000314227
-0.000356173
-0.000408242
-0.000484988
-0.000578189
-0.000671206
-0.000772331
-0.000906183
-0.00107464
-0.00124723
-0.00141121
-0.00158313
-0.0017699
-0.00198892
-0.0022189
-0.00239879
-0.0025049
-0.0025204
-0.000323356
-0.000337958
-0.000374052
-0.000426916
-0.000490469
-0.000572072
-0.000671124
-0.000775197
-0.00088278
-0.00100937
-0.00116384
-0.00133077
-0.00149003
-0.00165284
-0.00182356
-0.0020054
-0.00220236
-0.00237019
-0.00247138
-0.00249126
-0.000377347
-0.000396627
-0.000438745
-0.000499922
-0.000574192
-0.000662353
-0.000765343
-0.000876153
-0.000989916
-0.00111379
-0.00125552
-0.00141094
-0.00156229
-0.00171141
-0.00186639
-0.00202102
-0.00217999
-0.0023254
-0.00242029
-0.00244596
-0.00043564
-0.000459285
-0.000507266
-0.000574814
-0.000657627
-0.00075295
-0.000859492
-0.000973955
-0.0010919
-0.00121533
-0.00134745
-0.00148889
-0.00162855
-0.00176144
-0.00189641
-0.00202858
-0.00215518
-0.00227346
-0.00235838
-0.00238923
-0.00049692
-0.000524097
-0.000577475
-0.000650507
-0.000739312
-0.000840853
-0.000951229
-0.0010678
-0.00118715
-0.00130965
-0.00143527
-0.00156418
-0.00169066
-0.00180721
-0.00191842
-0.00202664
-0.00212683
-0.00221844
-0.00228979
-0.00232523
-0.000558989
-0.000588995
-0.000646651
-0.000724532
-0.000817753
-0.000923833
-0.00103754
-0.00115547
-0.00127417
-0.00139358
-0.001513
-0.00163176
-0.00174727
-0.00185367
-0.00194883
-0.00203528
-0.0021097
-0.00217089
-0.00221865
-0.0022478
-0.000618731
-0.000650935
-0.000711708
-0.00079363
-0.000890193
-0.000999012
-0.0011152
-0.00123439
-0.00135238
-0.00146814
-0.00158009
-0.00168645
-0.00178585
-0.00187701
-0.00195925
-0.00203559
-0.0021055
-0.00216678
-0.00221757
-0.00225396
-0.000673064
-0.000706113
-0.000768025
-0.000851931
-0.000950463
-0.00106026
-0.00117712
-0.00129698
-0.00141492
-0.00152879
-0.00163682
-0.0017376
-0.00182881
-0.00190882
-0.00197612
-0.00203197
-0.00207899
-0.00211891
-0.00215404
-0.00218673
-0.000723698
-0.000760472
-0.000825572
-0.000912711
-0.00101477
-0.00112721
-0.00124554
-0.00136624
-0.0014842
-0.0015963
-0.00170009
-0.00179444
-0.00187746
-0.00194792
-0.00200502
-0.00204991
-0.00208571
-0.00211622
-0.00214569
-0.0021787
0.00339078
0.00358843
0.00340653
0.00316213
0.00293931
0.00272085
0.00245678
0.00211991
0.00172749
0.00131481
0.00090919
0.000515709
0.000134555
-0.000231107
-0.000587716
-0.00095418
-0.00136167
-0.00180781
-0.00228467
-0.00281328
-0.00340239
-0.00405519
-0.00477713
-0.00558418
-0.00641702
-0.00715128
-0.0077429
-0.00814776
-0.008316
-0.0082589
-0.00801734
-0.00769114
-0.00735743
-0.00703741
-0.00678726
-0.00663897
-0.00658192
-0.00655048
-0.00647759
-0.00645423
-0.00653728
-0.00663059
-0.00673904
-0.00684043
-0.00683386
-0.00688669
-0.00710983
-0.00726702
-0.00726773
-0.0072856
-0.00741511
-0.00757118
-0.00761332
-0.00761562
-0.00772109
-0.00783048
-0.00787333
-0.0079401
-0.00801939
-0.0080768
-0.00814308
-0.00818789
-0.00822089
-0.00829062
-0.0083443
-0.00836213
-0.00841711
-0.00849391
-0.00852517
-0.0085501
-0.00861289
-0.00867588
-0.0087149
-0.00875734
-0.00881755
-0.00887664
-0.00893234
-0.00899025
-0.00905235
-0.0091165
-0.0091794
-0.00924712
-0.00931415
-0.00938504
-0.00945661
-0.00952943
-0.00960638
-0.0096825
-0.0097633
-0.00984503
-0.00992766
-0.0100151
-0.0101006
-0.0101902
-0.0102807
-0.0103706
-0.0104618
-0.010554
-0.0106342
-0.0107098
0.00280605
0.00321719
0.00329716
0.00314101
0.00291899
0.00268793
0.00242072
0.00208778
0.00169978
0.00129005
0.000885876
0.00049303
0.00011165
-0.000254675
-0.000610922
-0.000976097
-0.00138211
-0.00182684
-0.0023009
-0.00282484
-0.00340934
-0.00405849
-0.00477241
-0.00556552
-0.00638726
-0.00711212
-0.00769816
-0.00810771
-0.0082848
-0.00823587
-0.00800054
-0.00767814
-0.00734679
-0.00702881
-0.0067802
-0.00663285
-0.00657674
-0.00654576
-0.00647257
-0.0064503
-0.00653423
-0.00662647
-0.00673527
-0.00683812
-0.006831
-0.00688327
-0.00710762
-0.00726506
-0.00726524
-0.00728306
-0.00741351
-0.00757012
-0.00761219
-0.00761405
-0.00772008
-0.00782975
-0.00787241
-0.00793941
-0.00801899
-0.00807641
-0.00814282
-0.00818763
-0.00822057
-0.00829053
-0.00834427
-0.00836192
-0.00841702
-0.00849403
-0.0085252
-0.00855002
-0.00861292
-0.00867597
-0.00871492
-0.00875733
-0.00881758
-0.00887666
-0.00893235
-0.00899025
-0.00905236
-0.00911651
-0.0091794
-0.00924712
-0.00931415
-0.00938504
-0.00945662
-0.00952942
-0.00960638
-0.0096825
-0.0097633
-0.00984503
-0.00992766
-0.0100151
-0.0101006
-0.0101902
-0.0102807
-0.0103706
-0.0104618
-0.010554
-0.0106343
-0.0107099
0.00249744
0.00299615
0.00323961
0.00317266
0.00295346
0.00269686
0.00240947
0.00206817
0.00167755
0.00126631
0.000860548
0.000465988
8.25941e-05
-0.000286571
-0.000644174
-0.00100814
-0.00141097
-0.00185347
-0.00232444
-0.00284144
-0.00341863
-0.00406183
-0.00476304
-0.00552999
-0.00632238
-0.00702338
-0.00759288
-0.00799827
-0.00818902
-0.00816442
-0.0079529
-0.00764898
-0.00732929
-0.00701925
-0.00677762
-0.00663311
-0.00657638
-0.00654582
-0.00647486
-0.00645309
-0.00653627
-0.00662707
-0.00673391
-0.00683705
-0.00683187
-0.0068837
-0.00710543
-0.00726137
-0.00726265
-0.00728155
-0.00741115
-0.00756697
-0.00760942
-0.0076119
-0.00771825
-0.0078278
-0.0078703
-0.00793744
-0.00801704
-0.00807439
-0.00814113
-0.00818628
-0.00821929
-0.00828944
-0.0083434
-0.00836111
-0.00841622
-0.00849334
-0.00852463
-0.00854959
-0.00861258
-0.00867567
-0.00871469
-0.00875719
-0.00881749
-0.00887658
-0.00893229
-0.00899022
-0.00905234
-0.00911649
-0.0091794
-0.00924714
-0.00931417
-0.00938507
-0.00945664
-0.00952945
-0.00960641
-0.00968252
-0.00976331
-0.00984504
-0.00992766
-0.0100151
-0.0101006
-0.0101903
-0.0102807
-0.0103707
-0.0104619
-0.010554
-0.0106344
-0.0107101
0.00222665
0.00275142
0.00309941
0.00312816
0.00294318
0.00268218
0.0023808
0.00203056
0.00163615
0.00122479
0.000819711
0.000425523
4.2177e-05
-0.000328819
-0.000686552
-0.00104857
-0.00144715
-0.00188686
-0.00235559
-0.00286326
-0.00343048
-0.00406439
-0.00474798
-0.00548428
-0.00624044
-0.0069155
-0.00746759
-0.00786724
-0.00807304
-0.00807558
-0.00789266
-0.00761189
-0.00730677
-0.00700788
-0.00677434
-0.00663143
-0.00657261
-0.00654187
-0.00647299
-0.00645295
-0.00653729
-0.00662626
-0.00672761
-0.00683023
-0.0068312
-0.0068845
-0.0071002
-0.00725254
-0.00725662
-0.00727814
-0.00740585
-0.00755949
-0.00760361
-0.00760825
-0.00771406
-0.0078229
-0.007866
-0.00793348
-0.00801296
-0.00807052
-0.00813765
-0.00818316
-0.00821646
-0.00828681
-0.00834122
-0.00835942
-0.00841456
-0.00849164
-0.00852332
-0.00854867
-0.00861166
-0.00867474
-0.00871401
-0.00875675
-0.00881712
-0.00887621
-0.00893199
-0.00898999
-0.00905214
-0.00911631
-0.00917925
-0.00924703
-0.00931409
-0.00938501
-0.00945661
-0.00952943
-0.00960642
-0.00968253
-0.00976334
-0.00984507
-0.00992769
-0.0100151
-0.0101007
-0.0101903
-0.0102808
-0.0103707
-0.0104619
-0.0105541
-0.0106348
-0.0107104
0.00196931
0.00249665
0.00292075
0.00304807
0.00291868
0.00266851
0.00236218
0.00200414
0.00160222
0.00118656
0.000779141
0.00038391
1.67213e-07
-0.000371965
-0.000729308
-0.0010905
-0.00148482
-0.00192014
-0.0023864
-0.00288389
-0.00343819
-0.00405975
-0.00472379
-0.0054274
-0.0061463
-0.00679671
-0.0073342
-0.00772795
-0.00794606
-0.00797525
-0.00782286
-0.00756791
-0.0072807
-0.0069952
-0.00676947
-0.00662754
-0.0065662
-0.00653493
-0.00646965
-0.00645295
-0.00653859
-0.00662515
-0.00671947
-0.00682149
-0.0068313
-0.00688666
-0.00709383
-0.00724139
-0.00724941
-0.0072747
-0.00739953
-0.0075496
-0.00759615
-0.00760366
-0.00770817
-0.00781625
-0.00786051
-0.0079281
-0.00800714
-0.00806471
-0.00813205
-0.00817832
-0.00821228
-0.00828272
-0.00833774
-0.00835678
-0.00841179
-0.00848865
-0.00852105
-0.00854707
-0.00860997
-0.00867302
-0.00871276
-0.00875589
-0.00881633
-0.00887546
-0.00893137
-0.00898948
-0.0090517
-0.00911594
-0.00917895
-0.0092468
-0.0093139
-0.00938487
-0.00945652
-0.00952937
-0.0096064
-0.00968254
-0.00976337
-0.00984511
-0.00992774
-0.0100151
-0.0101007
-0.0101903
-0.0102808
-0.0103707
-0.010462
-0.0105541
-0.0106352
-0.010711
0.0017216
0.00224676
0.00272788
0.0029459
0.00288158
0.0026538
0.00234986
0.0019859
0.00157334
0.00114806
0.000735196
0.000337724
-4.61889e-05
-0.00041815
-0.000774042
-0.00113412
-0.00152451
-0.00195276
-0.00241496
-0.0029029
-0.00344239
-0.00404958
-0.00469401
-0.00536707
-0.00604899
-0.00667415
-0.00719949
-0.00758715
-0.00781433
-0.00786854
-0.0077469
-0.00751963
-0.00725262
-0.00698169
-0.00676453
-0.00662343
-0.00655861
-0.00652698
-0.00646641
-0.00645325
-0.00653943
-0.00662317
-0.00671082
-0.00681319
-0.00683225
-0.00688865
-0.00708608
-0.00722893
-0.00724174
-0.00727097
-0.00739224
-0.00753834
-0.0075877
-0.00759841
-0.00770136
-0.0078085
-0.00785398
-0.00792164
-0.00800021
-0.00805789
-0.00812561
-0.00817282
-0.00820739
-0.00827772
-0.00833343
-0.00835349
-0.00840832
-0.00848494
-0.00851829
-0.0085451
-0.00860783
-0.00867085
-0.00871115
-0.00875474
-0.00881525
-0.00887443
-0.00893052
-0.00898877
-0.00905108
-0.00911541
-0.00917851
-0.00924643
-0.0093136
-0.00938464
-0.00945635
-0.00952925
-0.00960634
-0.00968251
-0.00976337
-0.00984513
-0.00992779
-0.0100152
-0.0101008
-0.0101904
-0.0102809
-0.0103708
-0.0104621
-0.0105542
-0.0106357
-0.0107116
0.00148059
0.00200685
0.00252828
0.00282265
0.00282733
0.0026304
0.00233351
0.00196892
0.00154717
0.00110976
0.000689086
0.000288009
-9.64063e-05
-0.000468384
-0.000821766
-0.00117954
-0.00156629
-0.00198659
-0.00244314
-0.00292136
-0.00344591
-0.00403647
-0.00466004
-0.00530519
-0.00595049
-0.00654885
-0.00706342
-0.00744579
-0.00767976
-0.00775564
-0.00766441
-0.00746695
-0.00722135
-0.00696656
-0.00675954
-0.00661888
-0.0065498
-0.00651802
-0.00646254
-0.0064526
-0.00653885
-0.00662067
-0.00670288
-0.00680506
-0.00683226
-0.00688934
-0.00707734
-0.007216
-0.00723358
-0.00726643
-0.00738417
-0.00752622
-0.00757839
-0.00759257
-0.00769387
-0.00779991
-0.00784679
-0.00791467
-0.00799272
-0.0080505
-0.00811858
-0.00816671
-0.00820193
-0.00827223
-0.00832871
-0.00834985
-0.00840443
-0.00848081
-0.00851521
-0.00854287
-0.0086054
-0.0086684
-0.00870933
-0.00875341
-0.00881399
-0.00887324
-0.00892952
-0.00898794
-0.00905034
-0.00911477
-0.00917799
-0.009246
-0.00931324
-0.00938434
-0.00945614
-0.00952911
-0.00960626
-0.00968247
-0.00976337
-0.00984515
-0.00992784
-0.0100152
-0.0101009
-0.0101904
-0.010281
-0.0103708
-0.0104623
-0.0105543
-0.0106362
-0.0107123
0.00124361
0.00177535
0.00232508
0.00267985
0.00275376
0.00259606
0.00231032
0.00194983
0.00152386
0.00107387
0.000642069
0.000234758
-0.000151916
-0.000523855
-0.000874546
-0.00122781
-0.00160942
-0.00202263
-0.00247152
-0.00293846
-0.00344763
-0.00401952
-0.00462133
-0.00524059
-0.00585152
-0.00642202
-0.00692558
-0.00730476
-0.00754333
-0.00763617
-0.00757416
-0.007408
-0.00718567
-0.0069488
-0.00675327
-0.00661381
-0.00654032
-0.00650773
-0.00645733
-0.00645063
-0.0065372
-0.00661835
-0.00669497
-0.00679529
-0.00683061
-0.00688953
-0.00706851
-0.0072026
-0.0072245
-0.00726115
-0.00737554
-0.0075133
-0.00756829
-0.00758624
-0.00768586
-0.00779073
-0.00783918
-0.00790723
-0.00798461
-0.00804248
-0.00811099
-0.00816015
-0.00819615
-0.0082664
-0.00832361
-0.00834584
-0.0084002
-0.00847635
-0.00851186
-0.00854042
-0.00860277
-0.00866576
-0.00870736
-0.00875195
-0.00881261
-0.00887193
-0.00892842
-0.00898701
-0.00904953
-0.00911407
-0.0091774
-0.00924552
-0.00931285
-0.00938403
-0.00945591
-0.00952894
-0.00960616
-0.00968241
-0.00976336
-0.00984516
-0.0099279
-0.0100153
-0.010101
-0.0101905
-0.0102811
-0.0103709
-0.0104624
-0.0105544
-0.0106366
-0.0107131
0.00100825
0.00154806
0.002121
0.00252393
0.00266221
0.00255011
0.00227988
0.00192428
0.00149989
0.00103922
0.000593927
0.000177928
-0.000212194
-0.000583344
-0.000932307
-0.00127855
-0.00165256
-0.00205934
-0.00249911
-0.00295401
-0.00344641
-0.00399853
-0.00457963
-0.00517432
-0.00575237
-0.00629408
-0.00678544
-0.00716252
-0.00740483
-0.00751072
-0.00747487
-0.00734157
-0.00714605
-0.00692826
-0.00674501
-0.00660828
-0.00653061
-0.00649586
-0.00645001
-0.00644757
-0.00653516
-0.00661521
-0.00668545
-0.006784
-0.00682872
-0.00689042
-0.00705953
-0.00718796
-0.00721444
-0.00725541
-0.00736636
-0.00749954
-0.00755753
-0.00757955
-0.00767742
-0.00778097
-0.00783095
-0.00789916
-0.0079759
-0.00803394
-0.00810296
-0.00815321
-0.00818996
-0.00826008
-0.00831807
-0.00834152
-0.00839568
-0.00847157
-0.00850825
-0.00853777
-0.00859992
-0.0086629
-0.00870522
-0.00875035
-0.0088111
-0.00887049
-0.00892722
-0.00898601
-0.00904865
-0.0091133
-0.00917677
-0.00924499
-0.00931242
-0.00938367
-0.00945565
-0.00952875
-0.00960605
-0.00968235
-0.00976335
-0.00984516
-0.00992796
-0.0100153
-0.0101011
-0.0101906
-0.0102813
-0.010371
-0.0104626
-0.0105546
-0.0106371
-0.0107139
0.000775554
0.00132262
0.0019187
0.00236034
0.00255336
0.00248873
0.00223943
0.00188943
0.00147096
0.00100547
0.00054585
0.000119372
-0.000275197
-0.000645626
-0.000993156
-0.00133232
-0.00169662
-0.00209607
-0.00252598
-0.00296847
-0.0034428
-0.00397362
-0.00453613
-0.00510705
-0.00565088
-0.00616431
-0.00664336
-0.00701825
-0.00726561
-0.00738188
-0.00736711
-0.00726716
-0.00710176
-0.00690439
-0.00673411
-0.00660144
-0.00652059
-0.00648284
-0.00644096
-0.00644393
-0.00653229
-0.00661002
-0.00667463
-0.00677281
-0.00682754
-0.00689144
-0.00704922
-0.00717166
-0.00720361
-0.00724951
-0.00735687
-0.00748507
-0.00754606
-0.00757243
-0.00766843
-0.0077703
-0.00782193
-0.00789059
-0.00796671
-0.00802486
-0.00809439
-0.00814578
-0.00818328
-0.00825329
-0.00831214
-0.00833687
-0.00839078
-0.00846642
-0.00850436
-0.00853489
-0.00859684
-0.00865983
-0.00870291
-0.00874861
-0.00880945
-0.00886894
-0.00892593
-0.00898493
-0.0090477
-0.00911248
-0.00917609
-0.00924442
-0.00931195
-0.00938328
-0.00945537
-0.00952854
-0.00960593
-0.00968227
-0.00976334
-0.00984517
-0.00992802
-0.0100154
-0.0101012
-0.0101907
-0.0102814
-0.0103711
-0.0104628
-0.0105547
-0.0106375
-0.0107147
0.000546867
0.00109773
0.00171734
0.00219178
0.00242915
0.00240983
0.00218782
0.00184615
0.00143446
0.000970902
0.000498694
5.99242e-05
-0.000340485
-0.000710402
-0.00105565
-0.00139
-0.00174379
-0.00213257
-0.00255096
-0.00298096
-0.00343712
-0.00394577
-0.00449028
-0.00503747
-0.00554725
-0.00603384
-0.0065009
-0.00687331
-0.00712605
-0.00725068
-0.00725167
-0.0071829
-0.00705065
-0.00687698
-0.00672098
-0.00659322
-0.00650991
-0.0064695
-0.00643152
-0.00643918
-0.00652713
-0.00660305
-0.0066636
-0.00676166
-0.0068257
-0.00689116
-0.00703765
-0.00715469
-0.00719251
-0.00724347
-0.00734707
-0.00746958
-0.00753334
-0.00756455
-0.00765875
-0.00775883
-0.00781242
-0.00788168
-0.00795695
-0.00801508
-0.0080852
-0.0081378
-0.00817606
-0.00824596
-0.00830573
-0.00833181
-0.00838551
-0.00846093
-0.00850021
-0.00853179
-0.0085935
-0.00865651
-0.00870041
-0.00874672
-0.00880766
-0.00886726
-0.00892453
-0.00898375
-0.00904665
-0.00911157
-0.00917533
-0.00924379
-0.00931144
-0.00938286
-0.00945506
-0.00952831
-0.0096058
-0.00968219
-0.00976332
-0.00984517
-0.00992809
-0.0100154
-0.0101013
-0.0101907
-0.0102815
-0.0103712
-0.010463
-0.0105549
-0.0106379
-0.0107155
0.000323267
0.000874257
0.00151511
0.00201978
0.0022929
0.00231456
0.00212313
0.0017941
0.00138875
0.000931168
0.000452456
-3.3884e-07
-0.000408251
-0.000777601
-0.00111944
-0.0014498
-0.00179442
-0.00216809
-0.00257325
-0.00299175
-0.00342973
-0.00391745
-0.00444094
-0.0049636
-0.00544504
-0.00590458
-0.00635762
-0.00672767
-0.00698431
-0.00711669
-0.00713081
-0.0070894
-0.00699196
-0.00684613
-0.00670635
-0.0065831
-0.00649719
-0.00645572
-0.00642203
-0.00643241
-0.00651936
-0.00659511
-0.00665228
-0.00674909
-0.00682214
-0.00689051
-0.00702658
-0.00713758
-0.00718026
-0.00723617
-0.00733632
-0.00745297
-0.00751947
-0.00755617
-0.00764889
-0.00774693
-0.00780224
-0.00787198
-0.00794633
-0.00800449
-0.0080753
-0.00812922
-0.00816838
-0.0082382
-0.00829892
-0.00832641
-0.00837986
-0.00845504
-0.00849571
-0.00852839
-0.00858988
-0.00865293
-0.00869772
-0.00874467
-0.00880572
-0.00886544
-0.00892301
-0.00898246
-0.00904552
-0.00911058
-0.00917453
-0.00924311
-0.00931089
-0.0093824
-0.00945473
-0.00952805
-0.00960565
-0.00968209
-0.0097633
-0.00984516
-0.00992815
-0.0100155
-0.0101014
-0.0101908
-0.0102817
-0.0103713
-0.0104632
-0.0105551
-0.0106383
-0.0107164
0.000105259
0.000654327
0.00131108
0.00184402
0.00214755
0.00220495
0.00204402
0.00173183
0.00133396
0.000882997
0.000404901
-6.10738e-05
-0.000478205
-0.000846854
-0.00118402
-0.00150878
-0.00184696
-0.0022043
-0.00259439
-0.00300183
-0.00342038
-0.00388806
-0.00438772
-0.00488544
-0.00534621
-0.00577771
-0.00621145
-0.00658066
-0.00684143
-0.00698063
-0.00700721
-0.00698918
-0.00692448
-0.00680923
-0.00668903
-0.00657069
-0.0064821
-0.00644067
-0.00641209
-0.006425
-0.00651021
-0.00658557
-0.00663969
-0.0067348
-0.00681743
-0.00689039
-0.00701553
-0.00711878
-0.007166
-0.00722762
-0.00732525
-0.00743629
-0.00750516
-0.00754718
-0.00763836
-0.0077339
-0.00779078
-0.00786135
-0.00793511
-0.00799334
-0.00806489
-0.00812028
-0.0081603
-0.00822987
-0.0082915
-0.00832049
-0.00837374
-0.00844872
-0.00849089
-0.00852473
-0.008586
-0.00864912
-0.00869484
-0.00874244
-0.0088036
-0.00886346
-0.00892135
-0.00898107
-0.0090443
-0.00910952
-0.00917364
-0.00924236
-0.00931028
-0.00938189
-0.00945436
-0.00952777
-0.00960548
-0.00968197
-0.00976327
-0.00984515
-0.00992823
-0.0100155
-0.0101016
-0.0101909
-0.0102819
-0.0103714
-0.0104633
-0.0105553
-0.0106387
-0.0107173
-0.000107906
0.000439531
0.0011064
0.00166412
0.00199572
0.0020835
0.0019515
0.00165732
0.00126937
0.000825012
0.000352137
-0.000121024
-0.000549126
-0.000917865
-0.00124956
-0.00156646
-0.00189898
-0.00224321
-0.00261546
-0.00301048
-0.00340913
-0.00385527
-0.0043324
-0.00480605
-0.00524878
-0.00565289
-0.00606327
-0.00643311
-0.00670009
-0.00684334
-0.00688028
-0.00688299
-0.00684753
-0.00676378
-0.00666777
-0.00655718
-0.00646537
-0.00642308
-0.00640122
-0.00641889
-0.00650043
-0.00657267
-0.00662465
-0.00671938
-0.00681166
-0.00688948
-0.00700349
-0.0070989
-0.0071513
-0.00721882
-0.00731377
-0.00741895
-0.00748949
-0.00753654
-0.00762648
-0.00772002
-0.00777892
-0.00785054
-0.00792349
-0.00798152
-0.00805371
-0.00811056
-0.00815142
-0.00822079
-0.00828354
-0.00831421
-0.00836728
-0.00844201
-0.00848575
-0.00852079
-0.00858182
-0.008645
-0.0086917
-0.00873998
-0.00880128
-0.0088613
-0.00891957
-0.00897955
-0.00904296
-0.00910835
-0.00917267
-0.00924154
-0.00930963
-0.00938135
-0.00945396
-0.00952746
-0.00960528
-0.00968184
-0.00976323
-0.00984514
-0.00992829
-0.0100156
-0.0101017
-0.0101911
-0.010282
-0.0103716
-0.0104635
-0.0105555
-0.0106391
-0.0107181
-0.000317688
0.000229151
0.000902625
0.0014801
0.00183793
0.00195161
0.00184543
0.00156917
0.00119341
0.000757212
0.00029161
-0.000181628
-0.000620026
-0.000990968
-0.00131655
-0.00162331
-0.00194813
-0.00228315
-0.00263671
-0.00301692
-0.00339763
-0.00381999
-0.00427584
-0.00472799
-0.00515008
-0.00552855
-0.00591762
-0.00628599
-0.00655893
-0.00670511
-0.00674883
-0.00677113
-0.00676392
-0.00670983
-0.00664077
-0.00654262
-0.00644727
-0.00640262
-0.00638882
-0.00641328
-0.00648999
-0.00655643
-0.00660689
-0.00670311
-0.00680449
-0.00688715
-0.00699137
-0.00707926
-0.00713611
-0.00720865
-0.00730032
-0.00739976
-0.00747275
-0.0075255
-0.00761448
-0.00770595
-0.0077666
-0.00783877
-0.00791054
-0.00796846
-0.00804166
-0.00810029
-0.00814216
-0.00821135
-0.00827518
-0.00830747
-0.00836027
-0.00843477
-0.00848019
-0.0085165
-0.00857726
-0.00864054
-0.0086883
-0.00873733
-0.00879877
-0.00885898
-0.00891762
-0.0089779
-0.00904151
-0.00910708
-0.00917164
-0.00924066
-0.00930891
-0.00938074
-0.00945351
-0.00952711
-0.00960507
-0.00968169
-0.00976317
-0.00984512
-0.00992835
-0.0100157
-0.0101018
-0.0101912
-0.0102822
-0.0103718
-0.0104637
-0.0105558
-0.0106395
-0.010719
-0.000524742
2.21689e-05
0.000701036
0.00129308
0.00167383
0.00181045
0.00172604
0.00146855
0.00110564
0.000678946
0.000221706
-0.00024721
-0.000690075
-0.00106499
-0.001385
-0.00167966
-0.00199426
-0.00232071
-0.00265797
-0.00302188
-0.00338734
-0.00378573
-0.00421692
-0.00464978
-0.00505027
-0.0054042
-0.00577777
-0.00614018
-0.00641456
-0.00656774
-0.00661608
-0.00665296
-0.00667517
-0.00664898
-0.00660563
-0.00652419
-0.00642763
-0.00637984
-0.00637377
-0.00640638
-0.00648024
-0.00653967
-0.0065869
-0.00668464
-0.0067953
-0.00688353
-0.00697902
-0.00705891
-0.00711936
-0.00719701
-0.00728566
-0.00737992
-0.00745616
-0.0075147
-0.00760156
-0.00768995
-0.00775251
-0.00782591
-0.00789698
-0.00795503
-0.00802933
-0.00808965
-0.00813228
-0.00820105
-0.00826599
-0.00830008
-0.00835272
-0.00842707
-0.00847425
-0.00851185
-0.00857235
-0.00863576
-0.00868466
-0.00873446
-0.00879604
-0.00885644
-0.00891551
-0.00897612
-0.00903994
-0.00910571
-0.00917049
-0.00923968
-0.00930812
-0.00938008
-0.00945302
-0.00952673
-0.00960482
-0.00968152
-0.0097631
-0.0098451
-0.0099284
-0.0100158
-0.010102
-0.0101914
-0.0102823
-0.0103719
-0.0104639
-0.010556
-0.0106399
-0.0107198
-0.000727787
-0.000180841
0.00050219
0.0011044
0.00150356
0.00166063
0.00159487
0.00135568
0.00100577
0.000589018
0.000141048
-0.000320054
-0.000759932
-0.00113802
-0.00145443
-0.00173603
-0.00203786
-0.00235427
-0.00267819
-0.00302652
-0.00337782
-0.00375422
-0.0041567
-0.00456868
-0.00495134
-0.00528279
-0.00564254
-0.00599627
-0.0062669
-0.00643237
-0.00648629
-0.00652772
-0.00657885
-0.00658362
-0.00656201
-0.00649835
-0.00640621
-0.00635617
-0.00635638
-0.0063981
-0.00647138
-0.00652321
-0.00656422
-0.00666209
-0.00678314
-0.00687878
-0.00696604
-0.00703757
-0.00710198
-0.00718532
-0.00727084
-0.00735889
-0.00743761
-0.00750217
-0.00758729
-0.00767258
-0.00773777
-0.00781335
-0.00788347
-0.00794062
-0.00801559
-0.0080779
-0.00812158
-0.00819004
-0.00825623
-0.00829227
-0.00834472
-0.00841884
-0.00846786