/*--------------------------------*- C++ -*----------------------------------*\
  =========                 |
  \\      /  F ield         | OpenFOAM: The Open Source CFD Toolbox
   \\    /   O peration     | Website:  https://openfoam.org
    \\  /    A nd           | Version:  10
     \\/     M anipulation  |
\*---------------------------------------------------------------------------*/
FoamFile
{
    format      ascii;
    class       surfaceScalarField;
    location    "0.5";
    object      phi;
}
// * * * * * * * * * * * * * * * * * * * * * * * * * * * * * * * * * * * * * //

dimensions      [0 3 -1 0 0 0 0];

internalField   nonuniform List<scalar> 
9440
(
3.88089e-06
-8.15266e-09
3.87626e-06
-8.52156e-09
3.8801e-06
3.84342e-08
3.8776e-06
1.66918e-09
3.87911e-06
9.22692e-09
3.87434e-06
-3.60689e-08
3.87415e-06
1.28661e-09
3.87111e-06
-2.86515e-08
3.87217e-06
1.21974e-08
3.87302e-06
-1.27269e-08
3.87538e-06
2.08478e-08
3.87788e-06
-1.70142e-09
3.88061e-06
2.61244e-08
3.88293e-06
-3.6944e-09
3.88448e-06
1.54137e-08
3.88489e-06
-7.52448e-09
3.88368e-06
8.27136e-09
3.87782e-06
-2.17775e-09
3.86271e-06
2.44311e-08
3.30973e-08
3.84065e-06
4.18287e-06
-5.16622e-09
4.1855e-06
-1.11458e-08
4.1838e-06
4.01353e-08
4.18682e-06
-1.3579e-09
4.18412e-06
1.19266e-08
4.18291e-06
-3.4851e-08
4.18087e-06
3.32604e-09
4.17834e-06
-2.61223e-08
4.17987e-06
1.06666e-08
4.1784e-06
-1.12629e-08
4.18288e-06
1.63735e-08
4.18068e-06
5.01777e-10
4.18622e-06
2.05746e-08
4.18406e-06
-1.53033e-09
4.18795e-06
1.15249e-08
4.18481e-06
-4.38743e-09
4.18313e-06
9.95443e-09
4.17165e-06
9.30434e-09
4.16581e-06
3.02713e-08
4.06393e-08
4.15827e-06
4.51718e-06
-2.28609e-09
4.51883e-06
-1.27915e-08
4.51845e-06
4.05168e-08
4.51943e-06
-2.33861e-09
4.5193e-06
1.20579e-08
4.51593e-06
-3.14897e-08
4.51751e-06
1.75178e-09
4.51159e-06
-2.0203e-08
4.51697e-06
5.2899e-09
4.51117e-06
-5.46467e-09
4.51926e-06
8.28438e-09
4.51315e-06
6.61256e-09
4.52194e-06
1.1778e-08
4.51619e-06
4.22719e-09
4.52255e-06
5.16304e-09
4.51519e-06
2.97128e-09
4.51459e-06
1.05561e-08
4.50427e-06
1.96223e-08
4.50112e-06
3.34244e-08
4.64425e-08
4.49531e-06
4.87998e-06
-1.31731e-09
4.87923e-06
-1.20448e-08
4.88149e-06
3.8261e-08
4.87964e-06
-4.94185e-10
4.88221e-06
9.48684e-09
4.8766e-06
-2.58759e-08
4.88074e-06
-2.39184e-09
4.87355e-06
-1.30048e-08
4.87952e-06
-6.87165e-10
4.87394e-06
1.13964e-10
4.87993e-06
2.29836e-09
4.87752e-06
9.02448e-09
4.88205e-06
7.25019e-09
4.88137e-06
4.90419e-09
4.88146e-06
5.07266e-09
4.87617e-06
8.25961e-09
4.86997e-06
1.67628e-08
4.86419e-06
2.53959e-08
4.86091e-06
3.67091e-08
4.95708e-08
4.85778e-06
5.2704e-06
-1.07401e-09
5.26847e-06
-1.01114e-08
5.27238e-06
3.43519e-08
5.26891e-06
2.97731e-09
5.27296e-06
5.43263e-09
5.26608e-06
-1.89956e-08
5.27107e-06
-7.37541e-09
5.26442e-06
-6.36094e-09
5.26913e-06
-5.40009e-09
5.26631e-06
2.93347e-09
5.2687e-06
-9.16724e-11
5.27061e-06
7.12051e-09
5.27117e-06
6.69317e-09
5.27107e-06
4.99928e-09
5.26748e-06
8.66302e-09
5.2622e-06
1.35388e-08
5.25742e-06
2.15465e-08
5.25259e-06
3.02188e-08
5.24955e-06
3.97534e-08
5.15e-08
5.24762e-06
5.69151e-06
-1.12023e-09
5.68861e-06
-7.21196e-09
5.69381e-06
2.91516e-08
5.68946e-06
7.32241e-09
5.69387e-06
1.02717e-09
5.68733e-06
-1.24541e-08
5.69073e-06
-1.07835e-08
5.6876e-06
-3.22703e-09
5.68815e-06
-5.94621e-09
5.69012e-06
9.56773e-10
5.68879e-06
1.24477e-09
5.6915e-06
4.40363e-09
5.69104e-06
7.15506e-09
5.68907e-06
6.96956e-09
5.68491e-06
1.28233e-08
5.67991e-06
1.85423e-08
5.67579e-06
2.56676e-08
5.67188e-06
3.41257e-08
5.66914e-06
4.24884e-08
5.27265e-08
5.66792e-06
6.14607e-06
-1.31746e-09
6.14234e-06
-3.48557e-09
6.14849e-06
2.30057e-08
6.144e-06
1.18141e-08
6.14774e-06
-2.71437e-09
6.14289e-06
-7.60693e-09
6.14343e-06
-1.1321e-08
6.14437e-06
-4.17261e-09
6.14155e-06
-3.12434e-09
6.14439e-06
-1.88387e-09
6.14426e-06
1.38022e-09
6.14434e-06
4.32394e-09
6.14392e-06
7.5724e-09
6.14015e-06
1.07367e-08
6.13571e-06
1.72609e-08
6.13162e-06
2.26409e-08
6.12798e-06
2.93046e-08
6.12478e-06
3.73209e-08
6.12234e-06
4.49285e-08
5.35183e-08
6.12155e-06
6.63686e-06
-1.61344e-09
6.63262e-06
7.48866e-10
6.63891e-06
1.67211e-08
6.63548e-06
1.52369e-08
6.63721e-06
-4.44124e-09
6.63555e-06
-5.94612e-09
6.6328e-06
-8.57329e-09
6.6352e-06
-6.56662e-09
6.63369e-06
-1.62059e-09
6.63368e-06
-1.87015e-09
6.63531e-06
-2.47145e-10
6.63369e-06
5.94131e-09
6.6313e-06
9.96444e-09
6.62779e-06
1.42411e-08
6.62362e-06
2.14383e-08
6.61977e-06
2.64887e-08
6.61663e-06
3.2444e-08
6.61397e-06
3.99762e-08
6.61188e-06
4.70238e-08
5.41202e-08
6.61128e-06
7.16673e-06
-1.91212e-09
7.16248e-06
4.99569e-09
7.16786e-06
1.1346e-08
7.16685e-06
1.62437e-08
7.16563e-06
-3.22037e-09
7.16672e-06
-7.03534e-09
7.16304e-06
-4.89451e-09
7.16368e-06
-7.2017e-09
7.16507e-06
-3.01424e-09
7.16284e-06
3.63336e-10
7.16331e-06
-7.21253e-10
7.16238e-06
6.87021e-09
7.15815e-06
1.41936e-08
7.15443e-06
1.79654e-08
7.15106e-06
2.48049e-08
7.1474e-06
3.01503e-08
7.14458e-06
3.52659e-08
7.14237e-06
4.2179e-08
7.14066e-06
4.87367e-08
5.46397e-08
7.14014e-06
7.73879e-06
-2.09334e-09
7.73519e-06
8.59406e-09
7.73835e-06
8.17906e-09
7.74084e-06
1.37577e-08
7.737e-06
6.14503e-10
7.73868e-06
-8.71361e-09
7.73679e-06
-2.99726e-09
7.73465e-06
-5.06428e-09
7.73669e-06
-5.05601e-09
7.73551e-06
1.54721e-09
7.73259e-06
2.19583e-09
7.73143e-06
8.03213e-09
7.72791e-06
1.77073e-08
7.72374e-06
2.21352e-08
7.72078e-06
2.77671e-08
7.71758e-06
3.33546e-08
7.71494e-06
3.7905e-08
7.71308e-06
4.40367e-08
7.71174e-06
5.00783e-08
5.50587e-08
7.71132e-06
8.35642e-06
-2.05657e-09
8.3541e-06
1.0913e-08
8.35438e-06
7.90111e-09
8.35947e-06
8.6666e-09
8.35559e-06
4.50291e-09
8.35527e-06
-8.39451e-09
8.35587e-06
-3.59694e-09
8.35279e-06
-1.9925e-09
8.35246e-06
-4.72156e-09
8.3529e-06
1.10323e-09
8.34865e-06
6.45051e-09
8.34531e-06
1.13756e-08
8.34287e-06
2.01391e-08
8.33927e-06
2.57435e-08
8.33628e-06
3.07561e-08
8.33355e-06
3.60851e-08
8.33113e-06
4.03236e-08
8.32951e-06
4.56555e-08
8.3285e-06
5.10866e-08
5.52954e-08
8.32826e-06
9.02334e-06
-1.75417e-09
9.02281e-06
1.14431e-08
9.02049e-06
1.02275e-08
9.02589e-06
3.26982e-09
9.02478e-06
5.60556e-09
9.02129e-06
-4.90297e-09
9.02282e-06
-5.12506e-09
9.02112e-06
-2.94198e-10
9.01769e-06
-1.29475e-09
9.01763e-06
1.17173e-09
9.01481e-06
9.264e-09
9.00993e-06
1.62527e-08
9.00695e-06
2.31288e-08
9.00408e-06
2.86103e-08
9.00132e-06
3.3517e-08
8.9989e-06
3.85048e-08
8.99675e-06
4.24708e-08
8.99537e-06
4.70407e-08
8.99463e-06
5.18225e-08
5.53358e-08
8.99459e-06
9.74358e-06
-1.23437e-09
9.74491e-06
1.01194e-08
9.74103e-06
1.41072e-08
9.74426e-06
3.18056e-11
9.74683e-06
3.04223e-09
9.74213e-06
-2.00378e-10
9.7418e-06
-4.79821e-09
9.74184e-06
-3.35579e-10
9.73755e-06
2.99093e-09
9.73432e-06
4.40924e-09
9.73259e-06
1.09863e-08
9.72866e-06
2.0183e-08
9.72493e-06
2.68621e-08
9.72218e-06
3.13634e-08
9.71976e-06
3.59359e-08
9.71763e-06
4.06336e-08
9.71571e-06
4.4392e-08
9.71456e-06
4.8185e-08
9.71409e-06
5.23007e-08
5.51884e-08
9.71423e-06
1.05215e-05
-6.38989e-10
1.05237e-05
7.8632e-09
1.05203e-05
1.75756e-08
1.05197e-05
6.05679e-10
1.05246e-05
-1.82016e-09
1.0522e-05
2.34295e-09
1.05184e-05
-1.13804e-09
1.05184e-05
-3.53144e-10
1.05155e-05
5.85823e-09
1.051e-05
9.96283e-09
1.05067e-05
1.42252e-08
1.05044e-05
2.25321e-08
1.0501e-05
3.02613e-08
1.0498e-05
3.4346e-08
1.04958e-05
3.80989e-08
1.0494e-05
4.24358e-08
1.04923e-05
4.60636e-08
1.04914e-05
4.91365e-08
1.04912e-05
5.25104e-08
5.48882e-08
1.04915e-05
1.13617e-05
-1.70361e-10
1.13637e-05
5.8972e-09
1.13625e-05
1.87054e-08
1.13585e-05
4.68094e-09
1.13626e-05
-5.98308e-09
1.13636e-05
1.37492e-09
1.13586e-05
3.89842e-09
1.1356e-05
2.23559e-09
1.13544e-05
7.4631e-09
1.13491e-05
1.51859e-08
1.1344e-05
1.93897e-08
1.13414e-05
2.51286e-08
1.13392e-05
3.24838e-08
1.13363e-05
3.72325e-08
1.13341e-05
4.02334e-08
1.13326e-05
4.39388e-08
1.13313e-05
4.74304e-08
1.13305e-05
4.99323e-08
1.13305e-05
5.24829e-08
5.44014e-08
1.1331e-05
1.22691e-05
1.8992e-11
1.22699e-05
5.15367e-09
1.22717e-05
1.68576e-08
1.22662e-05
1.01994e-08
1.22667e-05
-6.4212e-09
1.22703e-05
-2.23127e-09
1.22672e-05
6.99327e-09
1.22613e-05
8.06666e-09
1.22586e-05
1.016e-08
1.22553e-05
1.85127e-08
1.22499e-05
2.47964e-08
1.2246e-05
2.90012e-08
1.2244e-05
3.44743e-08
1.22419e-05
3.93941e-08
1.22398e-05
4.23402e-08
1.22385e-05
4.52357e-08
1.22375e-05
4.84551e-08
1.22369e-05
5.05299e-08
1.22371e-05
5.22732e-08
5.37165e-08
1.22378e-05
1.3249e-05
-6.75157e-11
1.32484e-05
5.77848e-09
1.32519e-05
1.33915e-08
1.3248e-05
1.41052e-08
1.32437e-05
-2.13851e-09
1.32471e-05
-5.65011e-09
1.32473e-05
6.76251e-09
1.32408e-05
1.45429e-08
1.32355e-05
1.55391e-08
1.32327e-05
2.12328e-08
1.32287e-05
2.88361e-08
1.32243e-05
3.3417e-08
1.32216e-05
3.71751e-08
1.32199e-05
4.10948e-08
1.32181e-05
4.40836e-08
1.3217e-05
4.64104e-08
1.32163e-05
4.91643e-08
1.32159e-05
5.08933e-08
1.32162e-05
5.1924e-08
5.28503e-08
1.32171e-05
1.43069e-05
-2.50879e-10
1.43056e-05
7.07525e-09
1.43087e-05
1.03381e-08
1.43084e-05
1.44044e-08
1.43012e-05
5.05032e-09
1.43005e-05
-4.96037e-09
1.43035e-05
3.77937e-09
1.42997e-05
1.83142e-08
1.42921e-05
2.31644e-08
1.42877e-05
2.55742e-08
1.4285e-05
3.15655e-08
1.42814e-05
3.70747e-08
1.42782e-05
4.03805e-08
1.42763e-05
4.29546e-08
1.42749e-05
4.54659e-08
1.4274e-05
4.73669e-08
1.42735e-05
4.95714e-08
1.42734e-05
5.10228e-08
1.42739e-05
5.14249e-08
5.18213e-08
1.42749e-05
1.54491e-05
-3.16392e-10
1.54481e-05
8.05378e-09
1.54493e-05
9.12501e-09
1.54516e-05
1.21208e-08
1.54454e-05
1.12046e-08
1.54396e-05
8.56543e-10
1.54412e-05
2.22029e-09
1.54414e-05
1.81295e-08
1.54351e-05
2.94189e-08
1.54284e-05
3.22616e-08
1.5425e-05
3.49468e-08
1.54225e-05
3.96505e-08
1.54197e-05
4.30876e-08
1.54177e-05
4.50339e-08
1.54164e-05
4.67036e-08
1.54157e-05
4.8134e-08
1.54155e-05
4.96896e-08
1.54157e-05
5.08825e-08
1.54163e-05
5.07898e-08
5.06164e-08
1.54175e-05
1.66823e-05
-1.24718e-10
1.66822e-05
8.15783e-09
1.66815e-05
9.80282e-09
1.66841e-05
9.49033e-09
1.6681e-05
1.43021e-08
1.66727e-05
9.19865e-09
1.66696e-05
5.34081e-09
1.66714e-05
1.62553e-08
1.66688e-05
3.20758e-08
1.66624e-05
3.86528e-08
1.66571e-05
4.02417e-08
1.66545e-05
4.22713e-08
1.66524e-05
4.51503e-08
1.66507e-05
4.66895e-08
1.66495e-05
4.79036e-08
1.66489e-05
4.8741e-08
1.6649e-05
4.95823e-08
1.66495e-05
5.04172e-08
1.66503e-05
5.00367e-08
4.92685e-08
1.66516e-05
1.80139e-05
3.40259e-10
1.80146e-05
7.45516e-09
1.8013e-05
1.14312e-08
1.8014e-05
8.4884e-09
1.80136e-05
1.47003e-08
1.80062e-05
1.65847e-08
1.79991e-05
1.24437e-08
1.79983e-05
1.70655e-08
1.7999e-05
3.13399e-08
1.79951e-05
4.25972e-08
1.79897e-05
4.56656e-08
1.79856e-05
4.63326e-08
1.79836e-05
4.71492e-08
1.79823e-05
4.80286e-08
1.79815e-05
4.86546e-08
1.79812e-05
4.91082e-08
1.79814e-05
4.93215e-08
1.79822e-05
4.96576e-08
1.79832e-05
4.90459e-08
4.7851e-08
1.79846e-05
1.94521e-05
9.61231e-10
1.9453e-05
6.56805e-09
1.94515e-05
1.28588e-08
1.94503e-05
9.69959e-09
1.94509e-05
1.41314e-08
1.9446e-05
2.14207e-08
1.94378e-05
2.06821e-08
1.94335e-05
2.13642e-08
1.94336e-05
3.12211e-08
1.94333e-05
4.2938e-08
1.94294e-05
4.95703e-08
1.94251e-05
5.05983e-08
1.94219e-05
5.03318e-08
1.94207e-05
4.9299e-08
1.94201e-05
4.92194e-08
1.94201e-05
4.90842e-08
1.94207e-05
4.87496e-08
1.94216e-05
4.87582e-08
1.94229e-05
4.77547e-08
4.6296e-08
1.94244e-05
2.10052e-05
1.58072e-09
2.10057e-05
6.04066e-09
2.10049e-05
1.36599e-08
2.10024e-05
1.22399e-08
2.10019e-05
1.46448e-08
2.09995e-05
2.3734e-08
2.09926e-05
2.76391e-08
2.09861e-05
2.78914e-08
2.09843e-05
3.30035e-08
2.09846e-05
4.26004e-08
2.09837e-05
5.0503e-08
2.09803e-05
5.39769e-08
2.0977e-05
5.36423e-08
2.09747e-05
5.16348e-08
2.09742e-05
4.97146e-08
2.09743e-05
4.89677e-08
2.09752e-05
4.78387e-08
2.09764e-05
4.74982e-08
2.09778e-05
4.63928e-08
4.45156e-08
2.09796e-05
2.26823e-05
2.1577e-09
2.26823e-05
6.08425e-09
2.2682e-05
1.39518e-08
2.26791e-05
1.51948e-08
2.26771e-05
1.66394e-08
2.26759e-05
2.49373e-08
2.2671e-05
3.25457e-08
2.26646e-05
3.42562e-08
2.26606e-05
3.70093e-08
2.26602e-05
4.30093e-08
2.26605e-05
5.01376e-08
2.26597e-05
5.48438e-08
2.26571e-05
5.62596e-08
2.26546e-05
5.40468e-08
2.26533e-05
5.10978e-08
2.26534e-05
4.88609e-08
2.26543e-05
4.69238e-08
2.2656e-05
4.58272e-08
2.26577e-05
4.46142e-08
4.27108e-08
2.26595e-05
2.44935e-05
2.64842e-09
2.44929e-05
6.63225e-09
2.44926e-05
1.43053e-08
2.44899e-05
1.78697e-08
2.44869e-05
1.96012e-08
2.44853e-05
2.65177e-08
2.44828e-05
3.51301e-08
2.44775e-05
3.95457e-08
2.44729e-05
4.15246e-08
2.4471e-05
4.49694e-08
2.44713e-05
4.98456e-08
2.44718e-05
5.43173e-08
2.44713e-05
5.6717e-08
2.44695e-05
5.5928e-08
2.44682e-05
5.23754e-08
2.44677e-05
4.93511e-08
2.44683e-05
4.63611e-08
2.44701e-05
4.39967e-08
2.44721e-05
4.25908e-08
4.06222e-08
2.44742e-05
2.64491e-05
3.13729e-09
2.64481e-05
7.62631e-09
2.64476e-05
1.47497e-08
2.64454e-05
2.00905e-08
2.6442e-05
2.30373e-08
2.64399e-05
2.85917e-08
2.64381e-05
3.6964e-08
2.64348e-05
4.27956e-08
2.64308e-05
4.55569e-08
2.64282e-05
4.75847e-08
2.64277e-05
5.03387e-08
2.64285e-05
5.34691e-08
2.64295e-05
5.57678e-08
2.64295e-05
5.5877e-08
2.64286e-05
5.33106e-08
2.64284e-05
4.95861e-08
2.64285e-05
4.62547e-08
2.64296e-05
4.29013e-08
2.64317e-05
4.04121e-08
3.83923e-08
2.6434e-05
2.85609e-05
3.53525e-09
2.85597e-05
8.84879e-09
2.85588e-05
1.56795e-08
2.85568e-05
2.20661e-08
2.85537e-05
2.60858e-08
2.85512e-05
3.11628e-08
2.85497e-05
3.84341e-08
2.85477e-05
4.47721e-08
2.8545e-05
4.82372e-08
2.85427e-05
4.99777e-08
2.85416e-05
5.14115e-08
2.85421e-05
5.29082e-08
2.85436e-05
5.43506e-08
2.85449e-05
5.45092e-08
2.85457e-05
5.25864e-08
2.85458e-05
4.94679e-08
2.85463e-05
4.5698e-08
2.85471e-05
4.20966e-08
2.85486e-05
3.89599e-08
3.60691e-08
2.85509e-05
3.08413e-05
3.92695e-09
3.08399e-05
1.02516e-08
3.08388e-05
1.6752e-08
3.0837e-05
2.38622e-08
3.08343e-05
2.87963e-08
3.08319e-05
3.35812e-08
3.08303e-05
4.00512e-08
3.08291e-05
4.59517e-08
3.08276e-05
4.97005e-08
3.08262e-05
5.1397e-08
3.08254e-05
5.22537e-08
3.08255e-05
5.27341e-08
3.08269e-05
5.2985e-08
3.08288e-05
5.26356e-08
3.08305e-05
5.0854e-08
3.08319e-05
4.80477e-08
3.08328e-05
4.48359e-08
3.08339e-05
4.09406e-08
3.08352e-05
3.77373e-08
3.44349e-08
3.08368e-05
3.33038e-05
4.23236e-09
3.33024e-05
1.16979e-08
3.3301e-05
1.80963e-08
3.32995e-05
2.53693e-08
3.32972e-05
3.1144e-08
3.32951e-05
3.56394e-08
3.32938e-05
4.13113e-08
3.32931e-05
4.67329e-08
3.32924e-05
5.03971e-08
3.32919e-05
5.18628e-08
3.32917e-05
5.24453e-08
3.32921e-05
5.23041e-08
3.32933e-05
5.18305e-08
3.32952e-05
5.0735e-08
3.32972e-05
4.88228e-08
3.32994e-05
4.59108e-08
3.33011e-05
4.30895e-08
3.33024e-05
3.96802e-08
3.33039e-05
3.61874e-08
3.29348e-08
3.33054e-05
3.59628e-05
4.55904e-09
3.59615e-05
1.29748e-08
3.59601e-05
1.95143e-08
3.59589e-05
2.65626e-08
3.59571e-05
3.29703e-08
3.59554e-05
3.7345e-08
3.59545e-05
4.21601e-08
3.59543e-05
4.69788e-08
3.59542e-05
5.04401e-08
3.59544e-05
5.16616e-08
3.59551e-05
5.18253e-08
3.59559e-05
5.14304e-08
3.59573e-05
5.04748e-08
3.59592e-05
4.88748e-08
3.59612e-05
4.67866e-08
3.59635e-05
4.36197e-08
3.59659e-05
4.06741e-08
3.59679e-05
3.76491e-08
3.59697e-05
3.4423e-08
3.12158e-08
3.59714e-05
3.88341e-05
4.89515e-09
3.88332e-05
1.39277e-08
3.88317e-05
2.09555e-08
3.88309e-05
2.74178e-08
3.88297e-05
3.41502e-08
3.88285e-05
3.85285e-08
3.88281e-05
4.25241e-08
3.88286e-05
4.65603e-08
3.88293e-05
4.97363e-08
3.883e-05
5.09065e-08
3.88312e-05
5.06589e-08
3.88327e-05
4.98808e-08
3.88344e-05
4.88617e-08
3.88364e-05
4.67789e-08
3.88386e-05
4.45934e-08
3.88409e-05
4.13671e-08
3.88436e-05
3.79292e-08
3.88461e-05
3.51359e-08
3.88485e-05
3.20346e-08
2.92744e-08
3.88505e-05
4.19347e-05
5.23877e-09
4.19341e-05
1.45171e-08
4.1933e-05
2.2093e-08
4.19323e-05
2.80603e-08
4.1932e-05
3.44591e-08
4.19315e-05
3.90052e-08
4.19317e-05
4.24027e-08
4.19326e-05
4.55674e-08
4.19341e-05
4.82515e-08
4.19357e-05
4.93429e-08
4.19374e-05
4.89927e-08
4.19395e-05
4.77662e-08
4.19417e-05
4.66038e-08
4.1944e-05
4.452e-08
4.19467e-05
4.19268e-08
4.19489e-05
3.91076e-08
4.19515e-05
3.53626e-08
4.19543e-05
3.22866e-08
4.19569e-05
2.94634e-08
2.67943e-08
4.19594e-05
4.52829e-05
5.48651e-09
4.52826e-05
1.48109e-08
4.52821e-05
2.26264e-08
4.52817e-05
2.84141e-08
4.52821e-05
3.40544e-08
4.52826e-05
3.85284e-08
4.52834e-05
4.15789e-08
4.5285e-05
4.39836e-08
4.52872e-05
4.60643e-08
4.52896e-05
4.69509e-08
4.52919e-05
4.6657e-08
4.52945e-05
4.51719e-08
4.52975e-05
4.36455e-08
4.53003e-05
4.17157e-08
4.53033e-05
3.89428e-08
4.53061e-05
3.62746e-08
4.53086e-05
3.29211e-08
4.53113e-05
2.95117e-08
4.5314e-05
2.6807e-08
2.41993e-08
4.53166e-05
4.88985e-05
5.56164e-09
4.88985e-05
1.48082e-08
4.88987e-05
2.24626e-08
4.88989e-05
2.81665e-08
4.89e-05
3.30394e-08
4.89014e-05
3.70794e-08
4.89031e-05
3.98518e-08
4.89054e-05
4.17114e-08
4.89083e-05
4.31939e-08
4.89114e-05
4.38232e-08
4.89145e-05
4.35127e-08
4.89176e-05
4.20888e-08
4.89211e-05
4.01878e-08
4.89247e-05
3.81214e-08
4.89281e-05
3.5557e-08
4.89314e-05
3.28964e-08
4.89343e-05
3.01121e-08
4.89369e-05
2.68534e-08
4.89395e-05
2.42485e-08
2.18478e-08
4.89418e-05
5.28028e-05
5.42505e-09
5.28032e-05
1.44313e-08
5.28041e-05
2.1579e-08
5.28052e-05
2.70883e-08
5.28069e-05
3.13573e-08
5.28092e-05
3.47802e-08
5.28118e-05
3.71878e-08
5.2815e-05
3.85848e-08
5.28186e-05
3.9542e-08
5.28225e-05
3.98896e-08
5.28265e-05
3.95606e-08
5.28302e-05
3.83771e-08
5.28339e-05
3.65316e-08
5.28377e-05
3.43275e-08
5.28413e-05
3.18729e-08
5.2845e-05
2.92044e-08
5.28484e-05
2.67694e-08
5.28512e-05
2.40342e-08
5.28539e-05
2.15667e-08
1.96404e-08
5.28561e-05
5.70189e-05
5.07071e-09
5.70197e-05
1.35759e-08
5.70213e-05
2.00178e-08
5.70233e-05
2.50494e-08
5.70259e-05
2.88335e-08
5.7029e-05
3.1647e-08
5.70325e-05
3.36283e-08
5.70364e-05
3.46921e-08
5.70408e-05
3.52123e-08
5.70455e-05
3.5151e-08
5.70505e-05
3.46022e-08
5.70553e-05
3.35719e-08
5.70595e-05
3.23404e-08
5.70632e-05
3.0606e-08
5.70664e-05
2.86687e-08
5.70693e-05
2.62641e-08
5.70723e-05
2.38201e-08
5.70754e-05
2.09472e-08
5.70784e-05
1.85792e-08
1.65862e-08
5.70814e-05
6.15715e-05
4.50981e-09
6.15729e-05
1.21537e-08
6.15751e-05
1.77835e-08
6.15781e-05
2.20871e-08
6.15816e-05
2.5335e-08
6.15857e-05
2.75831e-08
6.15901e-05
2.91667e-08
6.15948e-05
3.00332e-08
6.15996e-05
3.03662e-08
6.16046e-05
3.01606e-08
6.16098e-05
2.93999e-08
6.16154e-05
2.79731e-08
6.16214e-05
2.64023e-08
6.16274e-05
2.46162e-08
6.16331e-05
2.29298e-08
6.16379e-05
2.14607e-08
6.16417e-05
2.00321e-08
6.16442e-05
1.84314e-08
6.1646e-05
1.67612e-08
1.52272e-08
6.16474e-05
6.64876e-05
3.75034e-09
6.64896e-05
1.00913e-08
6.64926e-05
1.48019e-08
6.64964e-05
1.82539e-08
6.65009e-05
2.08977e-08
6.65058e-05
2.26792e-08
6.65111e-05
2.38484e-08
6.65167e-05
2.44772e-08
6.65223e-05
2.47204e-08
6.65279e-05
2.45754e-08
6.65332e-05
2.40976e-08
6.65379e-05
2.33074e-08
6.6542e-05
2.22911e-08
6.65456e-05
2.09519e-08
6.65492e-05
1.93911e-08
6.65529e-05
1.76963e-08
6.6557e-05
1.59686e-08
6.65611e-05
1.43648e-08
6.65649e-05
1.28783e-08
1.15712e-08
6.65686e-05
7.1796e-05
2.88987e-09
7.17985e-05
7.58178e-09
7.18022e-05
1.11026e-08
7.18069e-05
1.36323e-08
7.18122e-05
1.55742e-08
7.18179e-05
1.69249e-08
7.1824e-05
1.77869e-08
7.18302e-05
1.82197e-08
7.18366e-05
1.836e-08
7.1843e-05
1.82103e-08
7.18493e-05
1.78047e-08
7.18554e-05
1.71404e-08
7.18614e-05
1.6318e-08
7.1867e-05
1.53444e-08
7.18721e-05
1.43056e-08
7.18766e-05
1.32389e-08
7.18804e-05
1.21369e-08
7.18837e-05
1.10566e-08
7.18865e-05
1.00321e-08
9.08399e-09
7.1889e-05
7.75287e-05
7.75319e-05
7.75365e-05
7.7542e-05
7.75481e-05
7.75547e-05
7.75615e-05
7.75685e-05
7.75754e-05
7.75823e-05
7.75889e-05
7.75952e-05
7.76012e-05
7.76068e-05
7.7612e-05
7.76168e-05
7.76211e-05
7.7625e-05
7.76285e-05
7.76316e-05
3.77337e-06
6.72789e-08
3.67881e-06
9.45657e-08
3.5788e-06
1.00002e-07
3.48028e-06
9.85255e-08
3.38207e-06
9.82052e-08
3.28283e-06
9.92392e-08
3.18191e-06
1.0092e-07
3.07932e-06
1.02594e-07
2.97515e-06
1.04166e-07
2.86931e-06
1.05845e-07
2.76178e-06
1.07529e-07
2.65245e-06
1.09329e-07
2.5413e-06
1.11153e-07
2.42794e-06
1.13359e-07
2.31222e-06
1.15714e-07
2.19425e-06
1.17976e-07
2.07454e-06
1.19706e-07
1.95369e-06
1.20854e-07
1.83186e-06
1.21831e-07
1.71001e-06
1.21853e-07
1.58924e-06
1.20764e-07
1.47028e-06
1.18966e-07
1.35466e-06
1.15618e-07
1.24556e-06
1.091e-07
1.14686e-06
9.86966e-08
1.06143e-06
8.54271e-08
9.91833e-07
6.96008e-08
9.39317e-07
5.25157e-08
9.01858e-07
3.7459e-08
8.7589e-07
2.59687e-08
8.57957e-07
1.79325e-08
8.45009e-07
1.2948e-08
8.35089e-07
9.92004e-09
8.26787e-07
8.30242e-09
8.18747e-07
8.03944e-09
8.10404e-07
8.3436e-09
8.0176e-07
8.64332e-09
7.93453e-07
8.30766e-09
7.85324e-07
8.129e-09
7.76208e-07
9.11536e-09
7.66278e-07
9.93014e-09
7.56394e-07
9.88379e-09
7.46446e-07
9.94878e-09
7.37161e-07
9.28421e-09
7.28398e-07
8.76314e-09
7.18319e-07
1.0079e-08
7.07721e-07
1.05982e-08
6.98884e-07
8.83753e-09
6.91416e-07
7.46782e-09
6.83821e-07
7.59434e-09
6.75827e-07
7.99396e-09
6.68581e-07
7.24657e-09
6.62876e-07
5.70518e-09
6.57369e-07
5.50712e-09
6.51537e-07
5.83138e-09
6.46495e-07
5.04259e-09
6.42122e-07
4.37285e-09
6.37884e-07
4.23777e-09
6.34192e-07
3.69215e-09
6.3096e-07
3.23168e-09
6.28115e-07
2.84491e-09
6.25919e-07
2.19617e-09
6.23906e-07
2.01344e-09
6.21973e-07
1.93229e-09
6.20641e-07
1.33211e-09
6.19605e-07
1.03588e-09
6.18391e-07
1.21425e-09
6.17486e-07
9.05233e-10
6.17121e-07
3.65332e-10
6.16732e-07
3.88455e-10
6.16237e-07
4.95056e-10
6.15975e-07
2.62384e-10
6.15945e-07
2.98145e-11
6.1588e-07
6.47728e-11
6.15768e-07
1.11538e-10
6.15747e-07
2.10512e-11
6.15761e-07
-1.32592e-11
6.15807e-07
-4.66291e-11
6.15838e-07
-3.0761e-11
6.15908e-07
-6.94597e-11
6.15989e-07
-8.1629e-11
6.16058e-07
-6.83871e-11
6.16157e-07
-9.98346e-11
6.16214e-07
-5.69248e-11
6.16307e-07
-9.24228e-11
6.16361e-07
-5.40158e-11
6.16414e-07
-5.28669e-11
6.16469e-07
-5.50393e-11
6.16482e-07
-1.32478e-11
6.1652e-07
-3.78911e-11
6.16523e-07
-3.34473e-12
6.16519e-07
4.47292e-12
6.16524e-07
-5.15194e-12
6.16485e-07
3.86487e-11
6.16458e-07
2.68956e-11
6.16408e-07
5.02383e-11
6.1632e-07
8.83692e-11
6.16219e-07
1.00547e-10
6.16017e-07
2.01745e-10
7.32225e-10
4.16378e-06
6.17673e-08
4.16729e-06
9.10494e-08
4.16136e-06
1.05939e-07
4.15132e-06
1.08567e-07
4.14043e-06
1.09094e-07
4.12839e-06
1.11275e-07
4.11425e-06
1.15063e-07
4.09726e-06
1.19578e-07
4.07757e-06
1.23862e-07
4.05483e-06
1.28582e-07
4.02915e-06
1.33209e-07
4.00021e-06
1.38272e-07
3.96785e-06
1.43515e-07
3.93191e-06
1.49297e-07
3.89188e-06
1.55742e-07
3.84788e-06
1.6198e-07
3.79939e-06
1.68196e-07
3.74682e-06
1.73418e-07
3.68984e-06
1.78814e-07
3.62844e-06
1.83256e-07
3.56335e-06
1.85855e-07
3.49464e-06
1.87671e-07
3.42327e-06
1.86987e-07
3.34982e-06
1.8255e-07
3.2766e-06
1.71922e-07
3.20557e-06
1.56455e-07
3.13765e-06
1.37517e-07
3.0749e-06
1.15268e-07
3.01788e-06
9.44826e-08
2.96619e-06
7.76572e-08
2.91895e-06
6.51704e-08
2.87436e-06
5.75364e-08
2.83192e-06
5.23608e-08
2.79111e-06
4.91165e-08
2.75086e-06
4.82853e-08
2.71078e-06
4.84213e-08
2.67138e-06
4.80437e-08
2.63316e-06
4.65363e-08
2.59568e-06
4.5604e-08
2.55893e-06
4.58665e-08
2.52231e-06
4.65465e-08
2.48492e-06
4.7276e-08
2.44839e-06
4.64759e-08
2.41459e-06
4.30853e-08
2.38167e-06
4.16839e-08
2.34771e-06
4.40372e-08
2.31422e-06
4.40957e-08
2.28304e-06
4.00099e-08
2.25355e-06
3.69592e-08
2.22464e-06
3.65094e-08
2.19689e-06
3.5741e-08
2.17153e-06
3.2607e-08
2.14819e-06
2.90485e-08
2.12561e-06
2.80811e-08
2.1041e-06
2.73432e-08
2.08443e-06
2.47081e-08
2.06622e-06
2.25866e-08
2.04926e-06
2.12003e-08
2.034e-06
1.89478e-08
2.02036e-06
1.68736e-08
2.00811e-06
1.50965e-08
1.99728e-06
1.30238e-08
1.98767e-06
1.16247e-08
1.97924e-06
1.03603e-08
1.97199e-06
8.58716e-09
1.96554e-06
7.48349e-09
1.95979e-06
6.96535e-09
1.95509e-06
5.60232e-09
1.95132e-06
4.1358e-09
1.94802e-06
3.68586e-09
1.94524e-06
3.28379e-09
1.94315e-06
2.34254e-09
1.94161e-06
1.57865e-09
1.94032e-06
1.34658e-09
1.93927e-06
1.16947e-09
1.9385e-06
7.84988e-10
1.93794e-06
5.52616e-10
1.93756e-06
3.30948e-10
1.93731e-06
2.22761e-10
1.93721e-06
2.19574e-11
1.93722e-06
-9.14981e-11
1.93732e-06
-1.68504e-10
1.9375e-06
-2.74743e-10
1.93771e-06
-2.64284e-10
1.93795e-06
-3.36485e-10
1.93819e-06
-2.9014e-10
1.9384e-06
-2.6917e-10
1.93861e-06
-2.60234e-10
1.93875e-06
-1.54175e-10
1.93889e-06
-1.77341e-10
1.93896e-06
-7.58266e-11
1.93902e-06
-5.22962e-11
1.93904e-06
-2.94884e-11
1.93903e-06
5.46906e-11
1.93899e-06
6.04063e-11
1.93892e-06
1.19451e-10
1.93882e-06
1.89219e-10
1.93863e-06
2.91959e-10
1.9385e-06
3.34736e-10
1.65498e-09
4.49708e-06
5.99957e-08
4.50285e-06
8.52785e-08
4.50582e-06
1.02974e-07
4.50521e-06
1.09175e-07
4.50393e-06
1.1038e-07
4.50335e-06
1.11853e-07
4.50337e-06
1.15037e-07
4.50322e-06
1.19732e-07
4.50265e-06
1.24428e-07
4.50138e-06
1.29859e-07
4.49938e-06
1.35206e-07
4.49656e-06
1.41086e-07
4.49274e-06
1.47344e-07
4.48797e-06
1.54059e-07
4.48191e-06
1.61805e-07
4.47463e-06
1.69265e-07
4.4656e-06
1.7722e-07
4.45488e-06
1.84138e-07
4.44227e-06
1.91419e-07
4.42733e-06
1.98204e-07
4.41037e-06
2.02814e-07
4.3913e-06
2.06742e-07
4.37032e-06
2.07967e-07
4.34714e-06
2.05728e-07
4.32221e-06
1.96854e-07
4.29642e-06
1.82241e-07
4.26941e-06
1.64531e-07
4.24203e-06
1.42647e-07
4.21532e-06
1.21188e-07
4.18976e-06
1.03221e-07
4.16539e-06
8.95417e-08
4.14142e-06
8.15053e-08
4.11755e-06
7.62291e-08
4.09352e-06
7.31434e-08
4.06888e-06
7.29254e-08
4.04363e-06
7.36688e-08
4.01784e-06
7.38346e-08
3.99209e-06
7.22937e-08
3.96614e-06
7.15458e-08
3.93946e-06
7.25511e-08
3.91245e-06
7.35586e-08
3.88441e-06
7.53165e-08
3.85547e-06
7.54173e-08
3.82764e-06
7.09088e-08
3.79985e-06
6.94724e-08
3.77054e-06
7.33503e-08
3.74103e-06
7.36028e-08
3.71231e-06
6.87307e-08
3.68405e-06
6.52239e-08
3.65541e-06
6.51476e-08
3.62636e-06
6.47912e-08
3.5986e-06
6.03709e-08
3.57207e-06
5.55709e-08
3.5456e-06
5.45596e-08
3.52006e-06
5.28778e-08
3.49595e-06
4.882e-08
3.4723e-06
4.62397e-08
3.44919e-06
4.43106e-08
3.427e-06
4.11375e-08
3.40585e-06
3.80234e-08
3.38629e-06
3.46552e-08
3.3683e-06
3.10071e-08
3.35144e-06
2.84871e-08
3.33603e-06
2.57713e-08
3.32209e-06
2.25277e-08
3.30899e-06
2.05844e-08
3.29677e-06
1.91836e-08
3.28595e-06
1.64271e-08
3.27627e-06
1.38113e-08
3.26737e-06
1.25866e-08
3.25941e-06
1.12441e-08
3.2526e-06
9.15371e-09
3.24671e-06
7.46319e-09
3.24157e-06
6.49109e-09
3.23713e-06
5.60385e-09
3.23342e-06
4.49823e-09
3.23032e-06
3.65638e-09
3.22778e-06
2.87163e-09
3.22574e-06
2.26358e-09
3.22417e-06
1.58493e-09
3.223e-06
1.08307e-09
3.2222e-06
6.32379e-10
3.2217e-06
2.22117e-10
3.22151e-06
-6.8963e-11
3.22154e-06
-3.67971e-10
3.22176e-06
-5.09592e-10
3.2221e-06
-6.11695e-10
3.2225e-06
-6.58762e-10
3.22292e-06
-5.72055e-10
3.2233e-06
-5.64869e-10
3.22363e-06
-4.06358e-10
3.2239e-06
-3.1672e-10
3.22409e-06
-2.25474e-10
3.22419e-06
-4.31727e-11
3.22427e-06
-2.27549e-11
3.22423e-06
1.67045e-10
3.22422e-06
1.91435e-10
3.22402e-06
5.00777e-10
3.22397e-06
3.75868e-10
2.30436e-09
4.85805e-06
5.97198e-08
4.86252e-06
8.08144e-08
4.86686e-06
9.86363e-08
4.86812e-06
1.0791e-07
4.8678e-06
1.10699e-07
4.8679e-06
1.1176e-07
4.86863e-06
1.14308e-07
4.86992e-06
1.18435e-07
4.87144e-06
1.2291e-07
4.8729e-06
1.28399e-07
4.87416e-06
1.33948e-07
4.87531e-06
1.39933e-07
4.87629e-06
1.46362e-07
4.87725e-06
1.53098e-07
4.87814e-06
1.60916e-07
4.87903e-06
1.68373e-07
4.87973e-06
1.76523e-07
4.8802e-06
1.83669e-07
4.88053e-06
1.9109e-07
4.88033e-06
1.984e-07
4.87976e-06
2.03386e-07
4.87883e-06
2.07677e-07
4.87747e-06
2.09322e-07
4.87523e-06
2.07968e-07
4.87181e-06
2.00281e-07
4.86748e-06
1.86564e-07
4.86161e-06
1.70405e-07
4.85405e-06
1.50207e-07
4.84566e-06
1.29576e-07
4.83709e-06
1.11791e-07
4.82878e-06
9.78501e-08
4.82061e-06
8.96738e-08
4.81231e-06
8.45337e-08
4.80374e-06
8.17085e-08
4.7947e-06
8.19713e-08
4.78526e-06
8.31069e-08
4.77542e-06
8.36763e-08
4.76536e-06
8.23516e-08
4.75516e-06
8.17472e-08
4.74441e-06
8.33031e-08
4.73335e-06
8.46187e-08
4.72185e-06
8.68123e-08
4.70944e-06
8.78233e-08
4.69701e-06
8.33472e-08
4.68436e-06
8.2117e-08
4.67069e-06
8.70187e-08
4.65666e-06
8.76383e-08
4.64269e-06
8.2702e-08
4.62857e-06
7.93362e-08
4.61405e-06
7.96752e-08
4.59873e-06
8.01114e-08
4.58341e-06
7.56904e-08
4.56834e-06
7.06401e-08
4.55271e-06
7.01892e-08
4.53699e-06
6.85984e-08
4.52183e-06
6.39734e-08
4.50679e-06
6.12797e-08
4.49194e-06
5.91655e-08
4.47747e-06
5.56067e-08
4.46318e-06
5.23091e-08
4.44925e-06
4.85883e-08
4.43562e-06
4.46398e-08
4.42197e-06
4.2136e-08
4.40878e-06
3.89625e-08
4.39652e-06
3.47828e-08
4.38501e-06
3.20952e-08
4.37423e-06
2.99657e-08
4.36442e-06
2.6242e-08
4.35526e-06
2.29637e-08
4.34645e-06
2.13995e-08
4.33809e-06
1.96053e-08
4.33038e-06
1.68584e-08
4.32326e-06
1.45895e-08
4.31667e-06
1.30808e-08
4.31069e-06
1.15843e-08
4.30535e-06
9.84085e-09
4.30061e-06
8.38852e-09
4.29645e-06
7.03083e-09
4.29285e-06
5.86508e-09
4.28979e-06
4.65208e-09
4.28719e-06
3.68088e-09
4.28506e-06
2.75876e-09
4.28335e-06
1.93119e-09
4.28207e-06
1.21664e-09
4.28117e-06
5.33023e-10
4.28059e-06
7.04301e-11
4.28034e-06
-3.61184e-10
4.2803e-06
-6.23296e-10
4.28051e-06
-7.85356e-10
4.28085e-06
-9.06371e-10
4.28131e-06
-8.62968e-10
4.28177e-06
-7.75865e-10
4.28223e-06
-6.87523e-10
4.28255e-06
-3.64061e-10
4.28287e-06
-3.37064e-10
4.28296e-06
6.99723e-11
4.28311e-06
4.27131e-11
4.28299e-06
6.2227e-10
4.28304e-06
3.25765e-10
2.61952e-09
5.24752e-06
5.98166e-08
5.25106e-06
7.72777e-08
5.25529e-06
9.44109e-08
5.25774e-06
1.05457e-07
5.25846e-06
1.09975e-07
5.25872e-06
1.11502e-07
5.25926e-06
1.13766e-07
5.26046e-06
1.1724e-07
5.26214e-06
1.21232e-07
5.26397e-06
1.26569e-07
5.26563e-06
1.32289e-07
5.26725e-06
1.38304e-07
5.26879e-06
1.44823e-07
5.2704e-06
1.51487e-07
5.27215e-06
1.59173e-07
5.27408e-06
1.66438e-07
5.27621e-06
1.74392e-07
5.27844e-06
1.8144e-07
5.28103e-06
1.88502e-07
5.28375e-06
1.95681e-07
5.28662e-06
2.00518e-07
5.28975e-06
2.04543e-07
5.29305e-06
2.06022e-07
5.29616e-06
2.04855e-07
5.29846e-06
1.97979e-07
5.30009e-06
1.84938e-07
5.30058e-06
1.69915e-07
5.29936e-06
1.51431e-07
5.297e-06
1.31936e-07
5.2942e-06
1.14593e-07
5.29149e-06
1.00555e-07
5.28905e-06
9.21144e-08
5.28665e-06
8.69317e-08
5.2842e-06
8.41571e-08
5.28162e-06
8.45597e-08
5.27894e-06
8.57783e-08
5.27617e-06
8.64487e-08
5.27332e-06