/*--------------------------------*- C++ -*----------------------------------*\
  =========                 |
  \\      /  F ield         | OpenFOAM: The Open Source CFD Toolbox
   \\    /   O peration     | Website:  https://openfoam.org
    \\  /    A nd           | Version:  10
     \\/     M anipulation  |
\*---------------------------------------------------------------------------*/
FoamFile
{
    format      ascii;
    class       volVectorField;
    location    "0.5";
    object      U;
}
// * * * * * * * * * * * * * * * * * * * * * * * * * * * * * * * * * * * * * //

dimensions      [0 1 -1 0 0 0 0];

internalField   nonuniform List<vector> 
4800
(
(0.959772 -3.79636e-05 0)
(1.03929 -0.000142238 0)
(0.963239 0.000502777 0)
(1.03607 -7.04349e-06 0)
(0.967166 0.000150331 0)
(1.0319 -0.000625258 0)
(0.969277 1.51596e-05 0)
(1.02736 -0.000574244 0)
(0.971657 0.000259638 0)
(1.02403 -0.000254979 0)
(0.975263 0.000540889 0)
(1.02154 1.95424e-05 0)
(0.978661 0.000798498 0)
(1.0195 -4.22404e-05 0)
(0.981518 0.00055701 0)
(1.01704 -0.00025195 0)
(0.983179 0.000283669 0)
(1.01379 -0.000306494 0)
(0.983808 0.000496716 0)
(1.01031 0.000664621 0)
(0.982135 -0.000108483 0)
(1.01507 -6.02526e-05 0)
(0.98595 0.000440753 0)
(1.01198 3.84857e-05 0)
(0.989651 0.000130088 0)
(1.00849 -0.000533069 0)
(0.991359 4.57292e-05 0)
(1.00506 -0.000521843 0)
(0.992715 0.000271559 0)
(1.00296 -0.00032442 0)
(0.994971 0.000512562 0)
(1.00177 -0.000108377 0)
(0.996753 0.00072623 0)
(1.00128 -0.000177673 0)
(0.998002 0.00050938 0)
(1.0005 -0.000313499 0)
(0.998154 0.000395756 0)
(0.998997 5.18879e-05 0)
(0.997537 0.00137884 0)
(0.997301 0.00201069 0)
(0.995703 -5.95437e-06 0)
(1.00273 -0.000169294 0)
(0.997043 0.000494061 0)
(1.00195 -5.66931e-05 0)
(0.99831 0.00018903 0)
(1.0008 -0.000505216 0)
(0.998295 4.92914e-05 0)
(0.999559 -0.000405133 0)
(0.998015 0.000137245 0)
(0.999076 -0.000167667 0)
(0.998632 0.000241178 0)
(0.999048 0.000136081 0)
(0.999063 0.000373478 0)
(0.999508 0.000106613 0)
(0.99944 0.000209154 0)
(0.999516 4.42843e-05 0)
(0.999131 0.00030568 0)
(0.998766 0.000690352 0)
(0.998316 0.00152832 0)
(0.997772 0.00240034 0)
(0.99937 -3.1649e-05 0)
(1.00013 -0.000127636 0)
(0.999561 0.000487786 0)
(1.00027 -2.09631e-05 0)
(0.999882 0.00016302 0)
(0.999876 -0.000471884 0)
(0.999449 5.47677e-06 0)
(0.999309 -0.000312518 0)
(0.998979 5.20292e-05 0)
(0.999074 -5.1194e-05 0)
(0.999162 9.92812e-05 0)
(0.999092 0.000237541 0)
(0.999309 0.000246343 0)
(0.999524 0.00016368 0)
(0.999583 0.000148765 0)
(0.999575 0.000179185 0)
(0.999339 0.000503815 0)
(0.999012 0.000967108 0)
(0.998681 0.00165231 0)
(0.998229 0.00247528 0)
(0.999942 2.62796e-07 0)
(0.99986 -0.000124724 0)
(0.999927 0.000421052 0)
(1.00014 1.49685e-05 0)
(1.00007 0.000103025 0)
(0.999857 -0.00032611 0)
(0.999612 -8.95999e-05 0)
(0.999427 -0.000148114 0)
(0.999253 -8.80909e-05 0)
(0.999238 6.83585e-05 0)
(0.999298 -1.10229e-05 0)
(0.999211 0.000209212 0)
(0.999387 0.000184001 0)
(0.999581 0.000138196 0)
(0.99966 0.000198136 0)
(0.999654 0.000373456 0)
(0.99948 0.000752117 0)
(0.999182 0.001227 0)
(0.998916 0.00179891 0)
(0.998532 0.00259935 0)
(0.999999 -1.79496e-05 0)
(0.999865 -0.00010094 0)
(0.999973 0.000389424 0)
(1.00014 6.57534e-05 0)
(1.00008 4.59905e-05 0)
(0.99986 -0.00023513 0)
(0.999636 -0.000172697 0)
(0.999456 -6.58265e-05 0)
(0.999341 -0.000133159 0)
(0.999304 4.9701e-05 0)
(0.999332 1.55635e-05 0)
(0.999264 0.000128526 0)
(0.999412 0.000198417 0)
(0.999608 0.000170995 0)
(0.999722 0.000340713 0)
(0.999725 0.000569609 0)
(0.999586 0.000935169 0)
(0.999308 0.00139532 0)
(0.999095 0.00192111 0)
(0.998764 0.00266583 0)
(1 -7.29578e-06 0)
(0.999879 -5.73384e-05 0)
(0.999982 0.000303259 0)
(1.00013 0.000128551 0)
(1.00008 -2.16205e-05 0)
(0.999855 -0.000130218 0)
(0.999644 -0.00020059 0)
(0.999462 -5.04208e-05 0)
(0.999361 -8.73722e-05 0)
(0.999334 -2.48869e-05 0)
(0.999344 4.85149e-05 0)
(0.999282 0.000109406 0)
(0.999431 0.000184297 0)
(0.999635 0.000257687 0)
(0.999774 0.000489018 0)
(0.999793 0.000736462 0)
(0.999687 0.00107945 0)
(0.999435 0.00154115 0)
(0.999266 0.00204997 0)
(0.998979 0.00271025 0)
(1 -1.69508e-05 0)
(0.999891 -1.62744e-05 0)
(0.99999 0.000232472 0)
(1.00012 0.000185406 0)
(1.00006 -6.48818e-05 0)
(0.99985 -9.46753e-05 0)
(0.999647 -0.000166881 0)
(0.999472 -0.000114504 0)
(0.999369 -2.52397e-05 0)
(0.999345 -5.76908e-05 0)
(0.99936 1.03894e-05 0)
(0.999297 0.000139414 0)
(0.999448 0.000232608 0)
(0.999674 0.000357118 0)
(0.999832 0.000632441 0)
(0.999861 0.000890763 0)
(0.999787 0.00120415 0)
(0.999564 0.00165556 0)
(0.99943 0.00215271 0)
(0.999185 0.00273529 0)
(1 -1.7587e-05 0)
(0.999898 3.66732e-05 0)
(0.999997 0.000154665 0)
(1.00011 0.000217717 0)
(1.00005 -6.43651e-05 0)
(0.999848 -9.55009e-05 0)
(0.999644 -0.000101216 0)
(0.99948 -0.000137654 0)
(0.999373 -3.77511e-05 0)
(0.999346 -1.26997e-05 0)
(0.999378 -2.88717e-05 0)
(0.999322 0.000152148 0)
(0.999474 0.000340236 0)
(0.999718 0.000490345 0)
(0.999893 0.000760487 0)
(0.99993 0.00102322 0)
(0.999887 0.00131662 0)
(0.999702 0.00174996 0)
(0.999597 0.00223724 0)
(0.99939 0.00276544 0)
(1 -2.14261e-05 0)
(0.999902 8.13463e-05 0)
(1 0.000104085 0)
(1.00009 0.000203747 0)
(1.00003 -1.94029e-05 0)
(0.999845 -0.000135149 0)
(0.999641 -5.28975e-05 0)
(0.99948 -0.000115124 0)
(0.999386 -9.3527e-05 0)
(0.999346 3.71203e-05 0)
(0.999388 5.49706e-06 0)
(0.999364 0.000165203 0)
(0.999514 0.00043168 0)
(0.999764 0.000615311 0)
(0.999955 0.000871519 0)
(1 0.00114402 0)
(0.999988 0.00144191 0)
(0.999841 0.0018467 0)
(0.999763 0.00231022 0)
(0.999585 0.00279207 0)
(1 -2.2527e-05 0)
(0.999902 0.000115927 0)
(1 8.64176e-05 0)
(1.00009 0.000143726 0)
(1.00001 4.20198e-05 0)
(0.999841 -0.000143327 0)
(0.999643 -4.97508e-05 0)
(0.999471 -5.50895e-05 0)
(0.999393 -0.000113141 0)
(0.999357 2.53673e-05 0)
(0.999398 0.000113863 0)
(0.999402 0.000243233 0)
(0.999565 0.000509396 0)
(0.999815 0.00071537 0)
(1.00002 0.000961196 0)
(1.00008 0.00124058 0)
(1.00009 0.0015387 0)
(0.999981 0.00192281 0)
(0.999928 0.00236299 0)
(0.999773 0.00280925 0)
(1 -2.07063e-05 0)
(0.999901 0.000131834 0)
(0.999994 0.000105025 0)
(1.00008 7.22669e-05 0)
(0.999991 8.58172e-05 0)
(0.999827 -0.000104258 0)
(0.999647 -8.16424e-05 0)
(0.999464 -8.5761e-06 0)
(0.999393 -6.84684e-05 0)
(0.999379 6.71748e-06 0)
(0.999423 0.000182634 0)
(0.999441 0.000371446 0)
(0.999614 0.000610426 0)
(0.999869 0.000814811 0)
(1.00009 0.00105624 0)
(1.00016 0.00133885 0)
(1.0002 0.00161745 0)
(1.00012 0.00198187 0)
(1.00009 0.00239823 0)
(0.999956 0.00281042 0)
(1 -1.65504e-05 0)
(0.999902 0.000123107 0)
(0.999981 0.000150513 0)
(1.00007 5.25881e-06 0)
(0.999977 7.24167e-05 0)
(0.99981 -3.28339e-05 0)
(0.999648 -9.5999e-05 0)
(0.999464 -2.05332e-06 0)
(0.999387 2.8179e-05 0)
(0.999396 4.72367e-05 0)
(0.999465 0.000215143 0)
(0.99949 0.00046307 0)
(0.999663 0.000711349 0)
(0.999925 0.0009136 0)
(1.00017 0.00114106 0)
(1.00025 0.00142555 0)
(1.00031 0.00170081 0)
(1.00027 0.00203555 0)
(1.00026 0.00243098 0)
(1.00014 0.00281107 0)
(1 -8.688e-06 0)
(0.999906 9.47603e-05 0)
(0.999967 0.000199918 0)
(1.00006 -7.88902e-06 0)
(0.999974 6.15719e-06 0)
(0.999792 3.30582e-05 0)
(0.999642 -6.16941e-05 0)
(0.999475 -1.37806e-05 0)
(0.999392 9.54922e-05 0)
(0.999408 0.000168507 0)
(0.999507 0.00028776 0)
(0.999552 0.00052555 0)
(0.999722 0.000792972 0)
(0.999982 0.0010103 0)
(1.00024 0.00121765 0)
(1.00035 0.00149301 0)
(1.00042 0.0017816 0)
(1.00041 0.0020838 0)
(1.00043 0.00244991 0)
(1.00031 0.00280274 0)
(1 -3.44885e-06 0)
(0.999915 6.87937e-05 0)
(0.999955 0.000228953 0)
(1.00003 2.74684e-05 0)
(0.999974 -7.02654e-05 0)
(0.99979 4.12985e-05 0)
(0.999632 3.37037e-05 0)
(0.999485 5.78022e-07 0)
(0.999415 0.00011921 0)
(0.99943 0.000280275 0)
(0.999543 0.000409644 0)
(0.999614 0.000601449 0)
(0.999792 0.000853077 0)
(1.00005 0.00108114 0)
(1.00032 0.00129084 0)
(1.00045 0.0015463 0)
(1.00054 0.00183395 0)
(1.00055 0.00211577 0)
(1.00059 0.00244188 0)
(1.00049 0.00277401 0)
(1 5.19097e-07 0)
(0.999926 5.21746e-05 0)
(0.999949 0.000216851 0)
(1.00001 0.000103506 0)
(0.99997 -0.000108978 0)
(0.999804 -7.22763e-06 0)
(0.999628 0.000112545 0)
(0.999487 9.41926e-05 0)
(0.999448 0.000153765 0)
(0.99947 0.000354255 0)
(0.999585 0.000534279 0)
(0.999672 0.000709601 0)
(0.999863 0.000928341 0)
(1.00012 0.00114755 0)
(1.0004 0.0013614 0)
(1.00056 0.00160158 0)
(1.00066 0.00187458 0)
(1.00069 0.00214353 0)
(1.00076 0.00243372 0)
(1.00067 0.00274158 0)
(1 6.67302e-08 0)
(0.999936 5.69016e-05 0)
(0.999952 0.000173591 0)
(0.999976 0.0001749 0)
(0.999951 -6.95092e-05 0)
(0.999828 -7.49362e-05 0)
(0.999649 0.00012547 0)
(0.999491 0.000228786 0)
(0.999474 0.000250585 0)
(0.999524 0.000403653 0)
(0.999639 0.000621829 0)
(0.999731 0.000810655 0)
(0.999934 0.00101059 0)
(1.0002 0.0012187 0)
(1.0005 0.00142391 0)
(1.00067 0.00165402 0)
(1.00079 0.00191772 0)
(1.00083 0.00216737 0)
(1.00092 0.00242444 0)
(1.00084 0.00270133 0)
(1 -1.61536e-06 0)
(0.999942 7.30218e-05 0)
(0.999958 0.000129771 0)
(0.999956 0.000197781 0)
(0.99992 2.43166e-05 0)
(0.999842 -0.000105251 0)
(0.999693 7.91825e-05 0)
(0.999515 0.000319019 0)
(0.999491 0.000405804 0)
(0.999573 0.000497914 0)
(0.999707 0.000684668 0)
(0.999799 0.000891574 0)
(1.00001 0.00108504 0)
(1.00028 0.00128256 0)
(1.00059 0.00147991 0)
(1.00078 0.00169283 0)
(1.00092 0.00194926 0)
(1.00097 0.00218538 0)
(1.00108 0.00240774 0)
(1.00101 0.00265438 0)
(1 -3.84874e-06 0)
(0.999945 8.83323e-05 0)
(0.999962 0.000109239 0)
(0.999946 0.000168083 0)
(0.999884 0.000132362 0)
(0.999838 -4.89903e-05 0)
(0.999747 2.8809e-05 0)
(0.999572 0.000325777 0)
(0.999522 0.000550923 0)
(0.999606 0.000647412 0)
(0.999767 0.000773961 0)
(0.999873 0.000957761 0)
(1.00008 0.00114493 0)
(1.00037 0.00132821 0)
(1.00068 0.00152605 0)
(1.0009 0.00172252 0)
(1.00105 0.00195615 0)
(1.0011 0.00219191 0)
(1.00123 0.00238544 0)
(1.00117 0.00259996 0)
(1 -2.97767e-06 0)
(0.999946 9.28357e-05 0)
(0.999959 0.000112459 0)
(0.999948 0.000129571 0)
(0.999864 0.000192472 0)
(0.999812 8.67355e-05 0)
(0.999785 4.0925e-05 0)
(0.999655 0.000288804 0)
(0.999583 0.000612445 0)
(0.999641 0.000799165 0)
(0.999813 0.000907322 0)
(0.999939 0.00104404 0)
(1.00016 0.00120729 0)
(1.00045 0.00136789 0)
(1.00078 0.00155132 0)
(1.00102 0.001739 0)
(1.00119 0.00194594 0)
(1.00124 0.00217537 0)
(1.00136 0.00235941 0)
(1.00132 0.00254068 0)
(1 2.19319e-07 0)
(0.999948 8.95967e-05 0)
(0.999953 0.000127939 0)
(0.999949 0.000106949 0)
(0.999861 0.000201198 0)
(0.999789 0.000215356 0)
(0.999796 0.000155126 0)
(0.999736 0.000278432 0)
(0.99968 0.000604086 0)
(0.999703 0.000884482 0)
(0.999853 0.00104233 0)
(0.999991 0.001157 0)
(1.00023 0.00128522 0)
(1.00053 0.00141529 0)
(1.00088 0.00156449 0)
(1.00113 0.00173927 0)
(1.00133 0.00192785 0)
(1.00139 0.00213589 0)
(1.0015 0.0023163 0)
(1.00146 0.00247316 0)
(1 6.50147e-06 0)
(0.999952 7.21699e-05 0)
(0.999943 0.000153861 0)
(0.99995 0.000112709 0)
(0.999876 0.000193728 0)
(0.999785 0.000302957 0)
(0.999792 0.000290772 0)
(0.999791 0.000348155 0)
(0.999786 0.000591365 0)
(0.999797 0.000899725 0)
(0.999915 0.00112775 0)
(1.00004 0.00127112 0)
(1.00028 0.00138168 0)
(1.0006 0.00147801 0)
(1.00097 0.00159387 0)
(1.00124 0.00173194 0)
(1.00146 0.00189442 0)
(1.00153 0.00208317 0)
(1.00163 0.00224798 0)
(1.00159 0.0023928 0)
(0.999999 1.42929e-05 0)
(0.99996 6.70634e-05 0)
(0.999942 0.000155241 0)
(0.999942 0.00014635 0)
(0.999898 0.000193175 0)
(0.999802 0.00034159 0)
(0.999796 0.00042104 0)
(0.999828 0.000462681 0)
(0.999877 0.000631142 0)
(0.999911 0.000896037 0)
(1.00001 0.00115463 0)
(1.0001 0.00134736 0)
(1.00032 0.00147811 0)
(1.00064 0.00155615 0)
(1.00103 0.00164207 0)
(1.00133 0.00174193 0)
(1.00159 0.00185409 0)
(1.00167 0.00202174 0)
(1.00177 0.00216437 0)
(1.00172 0.00229268 0)
(1 1.79572e-05 0)
(0.999964 6.45316e-05 0)
(0.999941 0.000166621 0)
(0.999943 0.000179418 0)
(0.999918 0.000217688 0)
(0.999842 0.000362727 0)
(0.999817 0.000508287 0)
(0.999854 0.000584518 0)
(0.999948 0.000707132 0)
(1.00001 0.000915039 0)
(1.00012 0.00115497 0)
(1.00019 0.00137035 0)
(1.00038 0.00153897 0)
(1.00068 0.00162861 0)
(1.00108 0.00169168 0)
(1.00139 0.00177124 0)
(1.00168 0.00183589 0)
(1.00179 0.00195667 0)
(1.00188 0.00207865 0)
(1.00184 0.00217939 0)
(0.999997 2.60232e-05 0)
(0.999976 6.70049e-05 0)
(0.99995 0.000163883 0)
(0.999937 0.000218404 0)
(0.999939 0.000257037 0)
(0.999884 0.000390394 0)
(0.99986 0.00055729 0)
(0.999891 0.000680025 0)
(1 0.000794132 0)
(1.00011 0.00096009 0)
(1.00023 0.00116484 0)
(1.0003 0.00136962 0)
(1.00046 0.0015531 0)
(1.00073 0.00167404 0)
(1.00112 0.00173127 0)
(1.00143 0.00179605 0)
(1.00173 0.00184274 0)
(1.00188 0.00190274 0)
(1.00198 0.00199498 0)
(1.00195 0.00206803 0)
(0.999999 2.84359e-05 0)
(0.999976 8.03092e-05 0)
(0.99996 0.00017047 0)
(0.999949 0.000243074 0)
(0.999956 0.000304333 0)
(0.999933 0.00041908 0)
(0.999912 0.000599298 0)
(0.999935 0.000743865 0)
(1.00006 0.000870245 0)
(1.00018 0.00101171 0)
(1.00033 0.00118553 0)
(1.00041 0.00136806 0)
(1.00056 0.00153926 0)
(1.00079 0.00167621 0)
(1.00115 0.00174708 0)
(1.00146 0.0017992 0)
(1.00176 0.0018456 0)
(1.00193 0.00187189 0)
(1.00205 0.00192205 0)
(1.00202 0.00197105 0)
(0.999997 3.38663e-05 0)
(0.999988 8.67653e-05 0)
(0.999972 0.000184427 0)
(0.999954 0.000273843 0)
(0.999978 0.000342967 0)
(0.999977 0.000458552 0)
(0.999975 0.000626849 0)
(0.999991 0.000797745 0)
(1.00011 0.000926222 0)
(1.00026 0.00105751 0)
(1.00041 0.00120728 0)
(1.00051 0.00136903 0)
(1.00066 0.00152425 0)
(1.00086 0.00164799 0)
(1.0012 0.00172827 0)
(1.00149 0.00177781 0)
(1.00178 0.0018178 0)
(1.00194 0.00184045 0)
(1.00208 0.00186205 0)
(1.00206 0.00188276 0)
(0.999999 3.85928e-05 0)
(0.999988 0.000105619 0)
(0.999989 0.000186448 0)
(0.999975 0.000300347 0)
(0.999999 0.000388149 0)
(1.00003 0.000492995 0)
(1.00004 0.000658281 0)
(1.00005 0.000827025 0)
(1.00017 0.000972725 0)
(1.00032 0.00109023 0)
(1.0005 0.00121883 0)
(1.0006 0.00136141 0)
(1.00075 0.00150391 0)
(1.00093 0.0016166 0)
(1.00124 0.00168381 0)
(1.00152 0.00173322 0)
(1.0018 0.00176621 0)
(1.00195 0.0017839 0)
(1.00207 0.00180386 0)
(1.00206 0.0018012 0)
(0.999998 4.00267e-05 0)
(0.999996 0.000119084 0)
(1 0.000208588 0)
(0.999996 0.000318116 0)
(1.00002 0.000425856 0)
(1.00007 0.000529374 0)
(1.00011 0.000674694 0)
(1.00013 0.000849176 0)
(1.00023 0.000997132 0)
(1.00038 0.00111505 0)
(1.00056 0.00122631 0)
(1.00069 0.00134392 0)
(1.00083 0.00147011 0)
(1.00098 0.00157839 0)
(1.00127 0.00163617 0)
(1.00154 0.00166618 0)
(1.0018 0.00169948 0)
(1.00195 0.00170629 0)
(1.00206 0.00172513 0)
(1.00204 0.00172004 0)
(0.999999 4.4742e-05 0)
(0.999997 0.000135469 0)
(1.00002 0.000218714 0)
(1.00002 0.000336662 0)
(1.00005 0.000456973 0)
(1.00011 0.000561191 0)
(1.00017 0.000693226 0)
(1.0002 0.000851904 0)
(1.00029 0.0010081 0)
(1.00043 0.00112108 0)
(1.00062 0.00122302 0)
(1.00076 0.00132261 0)
(1.00091 0.00142421 0)
(1.00104 0.00152208 0)
(1.00128 0.00158842 0)
(1.00154 0.00159575 0)
(1.0018 0.00161848 0)
(1.00194 0.00162269 0)
(1.00205 0.00162507 0)
(1.00201 0.0016282 0)
(1 4.60078e-05 0)
(1 0.000148009 0)
(1.00003 0.00024174 0)
(1.00005 0.000345771 0)
(1.00008 0.000477908 0)
(1.00015 0.00058627 0)
(1.00023 0.000705217 0)
(1.00028 0.00084563 0)
(1.00036 0.000997213 0)
(1.00048 0.00111688 0)
(1.00067 0.00120523 0)
(1.00081 0.00129242 0)
(1.00097 0.0013783 0)
(1.0011 0.00144972 0)
(1.0013 0.0015226 0)
(1.00152 0.00153175 0)
(1.00178 0.00152741 0)
(1.00191 0.00153309 0)
(1.00202 0.00151648 0)
(1.00197 0.00151927 0)
(1 5.09143e-05 0)
(1.00001 0.000154465 0)
(1.00004 0.000257162 0)
(1.00008 0.000357233 0)
(1.00012 0.000483218 0)
(1.00018 0.000601822 0)
(1.00028 0.000711644 0)
(1.00034 0.000834448 0)
(1.00043 0.000969113 0)
(1.00054 0.00108931 0)
(1.00071 0.00117831 0)
(1.00086 0.00124646 0)
(1.00101 0.00132508 0)
(1.00114 0.0013776 0)
(1.00132 0.00143155 0)
(1.00148 0.00146084 0)
(1.00174 0.00143687 0)
(1.00186 0.00143188 0)
(1.00196 0.00141021 0)
(1.00192 0.00139607 0)
(1 5.34753e-05 0)
(1.00001 0.000159472 0)
(1.00005 0.000266526 0)
(1.0001 0.000365913 0)
(1.00015 0.000481579 0)
(1.00022 0.000598207 0)
(1.00032 0.000706175 0)
(1.0004 0.000813809 0)
(1.0005 0.000932093 0)
(1.00059 0.00104163 0)
(1.00075 0.00113213 0)
(1.00089 0.00119215 0)
(1.00104 0.00125349 0)
(1.00116 0.00130336 0)
(1.00133 0.00133039 0)
(1.00145 0.00136252 0)
(1.00166 0.00134652 0)
(1.00179 0.00132055 0)
(1.00188 0.00130227 0)
(1.00186 0.00127147 0)
(1 5.53535e-05 0)
(1.00002 0.000160768 0)
(1.00006 0.000268474 0)
(1.00011 0.0003672 0)
(1.00018 0.000471944 0)
(1.00026 0.000581848 0)
(1.00036 0.000685203 0)
(1.00044 0.000782734 0)
(1.00055 0.000883479 0)
(1.00064 0.000979435 0)
(1.00079 0.00106412 0)
(1.00091 0.00112258 0)
(1.00106 0.00116927 0)
(1.00116 0.00121272 0)
(1.00132 0.00122989 0)
(1.00142 0.00124402 0)
(1.00158 0.00124186 0)
(1.00169 0.00120652 0)
(1.00178 0.00118525 0)
(1.00176 0.00115217 0)
(1 5.49859e-05 0)
(1.00002 0.00015919 0)
(1.00007 0.000261304 0)
(1.00013 0.000358976 0)
(1.00021 0.000454444 0)
(1.00029 0.000552355 0)
(1.00039 0.000647795 0)
(1.00048 0.000735283 0)
(1.0006 0.000822383 0)
(1.00069 0.000903571 0)
(1.00082 0.000977509 0)
(1.00093 0.0010335 0)
(1.00107 0.00107151 0)
(1.00115 0.00110545 0)
(1.00129 0.00112166 0)
(1.00138 0.00112053 0)
(1.0015 0.00111864 0)
(1.00159 0.00108884 0)
(1.00167 0.00106143 0)
(1.00166 0.00103261 0)
(1 5.23997e-05 0)
(1.00002 0.000152749 0)
(1.00008 0.000247022 0)
(1.00014 0.000338117 0)
(1.00023 0.000425489 0)
(1.00031 0.000510476 0)
(1.00042 0.000594736 0)
(1.00051 0.000672039 0)
(1.00063 0.000746401 0)
(1.00072 0.000813441 0)
(1.00084 0.000873382 0)
(1.00094 0.000922296 0)
(1.00107 0.000955566 0)
(1.00114 0.000980486 0)
(1.00125 0.000998915 0)
(1.00132 0.000996243 0)
(1.00142 0.000991937 0)
(1.00147 0.000971801 0)
(1.00155 0.000942452 0)
(1.00155 0.000915926 0)
(1 4.77138e-05 0)
(1.00003 0.000140267 0)
(1.00009 0.000224418 0)
(1.00016 0.000305128 0)
(1.00025 0.000382531 0)
(1.00033 0.000455204 0)
(1.00044 0.000525931 0)
(1.00054 0.000591495 0)
(1.00065 0.00065314 0)
(1.00074 0.00070845 0)
(1.00086 0.000755862 0)
(1.00094 0.000793927 0)
(1.00106 0.000820651 0)
(1.00113 0.000835863 0)
(1.00122 0.000848329 0)
(1.00127 0.000848367 0)
(1.00135 0.00084368 0)
(1.00137 0.000835188 0)
(1.00143 0.000819021 0)
(1.00142 0.000806002 0)
(1 4.15567e-05 0)
(1.00003 0.000121712 0)
(1.00009 0.000193236 0)
(1.00016 0.000259449 0)
(1.00026 0.00032325 0)
(1.00035 0.000381594 0)
(1.00046 0.000436699 0)
(1.00056 0.000487746 0)
(1.00067 0.000535678 0)
(1.00075 0.000578829 0)
(1.00087 0.000615866 0)
(1.00094 0.00064504 0)
(1.00104 0.000666662 0)
(1.00109 0.000678027 0)
(1.00118 0.000684279 0)
(1.00122 0.000684054 0)
(1.00129 0.000676612 0)
(1.00132 0.000668227 0)
(1.00138 0.00065652 0)
(1.00138 0.000646072 0)
(1 3.53142e-05 0)
(1.00003 0.000103868 0)
(1.00009 0.000166809 0)
(1.00017 0.000223601 0)
(1.00026 0.000278447 0)
(1.00036 0.000329342 0)
(1.00047 0.000376877 0)
(1.00056 0.00042032 0)
(1.00068 0.000461336 0)
(1.00076 0.000498487 0)
(1.00087 0.0005313 0)
(1.00093 0.000557758 0)
(1.00103 0.000579286 0)
(1.00107 0.000593693 0)
(1.00114 0.000602566 0)
(1.00116 0.000605779 0)
(1.00122 0.000601946 0)
(1.00123 0.000593561 0)
(1.00127 0.000582165 0)
(1.00128 0.000569631 0)
(1 1.61457e-05 0)
(1.00004 4.84596e-05 0)
(1.0001 7.90067e-05 0)
(1.00018 0.000106928 0)
(1.00028 0.000134 0)
(1.00037 0.000159752 0)
(1.00049 0.000183896 0)
(1.00058 0.000206172 0)
(1.0007 0.000227045 0)
(1.00078 0.000246045 0)
(1.00088 0.00026283 0)
(1.00094 0.000276515 0)
(1.00103 0.000287412 0)
(1.00106 0.000295289 0)
(1.00112 0.000300437 0)
(1.00114 0.000303523 0)
(1.00118 0.000304447 0)
(1.00118 0.000303567 0)
(1.00122 0.000302074 0)
(1.00123 0.000300141 0)
(0.984076 0.00207292 0)
(0.959733 0.00326333 0)
(0.935307 0.00360874 0)
(0.91053 0.00357528 0)
(0.885352 0.00350386 0)
(0.859709 0.00347972 0)
(0.833761 0.00348754 0)
(0.80743 0.00349026 0)
(0.780833 0.00348453 0)
(0.753774 0.00346928 0)
(0.726313 0.00344702 0)
(0.698343 0.0034123 0)
(0.669964 0.00337239 0)
(0.641038 0.00333696 0)
(0.611491 0.00329584 0)
(0.581317 0.00323948 0)
(0.550589 0.00314715 0)
(0.519605 0.00305573 0)
(0.488217 0.00295958 0)
(0.456687 0.00284436 0)
(0.425329 0.0026964 0)
(0.394337 0.0025429 0)
(0.363802 0.00238616 0)
(0.334432 0.00205728 0)
(0.307511 0.00160635 0)
(0.283541 0.00114387 0)
(0.263405 0.000585124 0)
(0.247945 7.78356e-05 0)
(0.236794 -0.000262225 0)
(0.228977 -0.000434058 0)
(0.223513 -0.000507106 0)
(0.2196 -0.000497518 0)
(0.216661 -0.000455725 0)
(0.214304 -0.000401854 0)
(0.212207 -0.000341561 0)
(0.2101 -0.000288321 0)
(0.207921 -0.000245335 0)
(0.205762 -0.000212333 0)
(0.20362 -0.000166285 0)
(0.201381 -0.000116183 0)
(0.198953 -0.000102921 0)
(0.196383 -9.45727e-05 0)
(0.193811 -6.02725e-05 0)
(0.191374 -4.24687e-05 0)
(0.189013 -3.81431e-05 0)
(0.186542 -1.78115e-05 0)
(0.183905 -1.03463e-05 0)
(0.181417 -2.04592e-05 0)
(0.179292 -2.05595e-05 0)
(0.177336 -5.12766e-06 0)
(0.175322 6.06736e-06 0)
(0.173387 1.85673e-06 0)
(0.171718 -7.76223e-06 0)
(0.17024 -1.88318e-06 0)
(0.168794 6.46949e-06 0)
(0.167404 4.56858e-06 0)
(0.166176 4.85482e-06 0)
(0.165065 9.79441e-06 0)
(0.164055 9.76434e-06 0)
(0.163153 8.42075e-06 0)
(0.162382 6.95611e-06 0)
(0.161729 5.47586e-06 0)
(0.161184 8.20531e-06 0)
(0.160682 8.76935e-06 0)
(0.160272 4.52235e-06 0)
(0.159951 4.79223e-06 0)
(0.159669 8.32745e-06 0)
(0.159402 6.27653e-06 0)
(0.159243 2.51849e-06 0)
(0.159133 3.78249e-06 0)
(0.159033 5.05398e-06 0)
(0.158931 3.25781e-06 0)
(0.158904 1.48871e-06 0)
(0.158877 1.52195e-06 0)
(0.158871 1.52067e-06 0)
(0.15884 6.02547e-07 0)
(0.158854 1.20133e-07 0)
(0.158846 -2.33947e-07 0)
(0.158873 -1.53473e-07 0)
(0.158869 -4.28974e-07 0)
(0.158907 -4.50655e-07 0)
(0.158907 -3.44315e-07 0)
(0.158952 -5.89721e-07 0)
(0.158945 -3.3006e-07 0)
(0.158996 -5.95326e-07 0)
(0.158979 -3.47154e-07 0)
(0.159033 -3.32301e-07 0)
(0.159003 -2.69381e-07 0)
(0.159059 -5.33626e-08 0)
(0.159015 -1.05877e-07 0)
(0.159075 2.64996e-08 0)
(0.159016 1.30691e-07 0)
(0.159081 -1.5375e-08 0)
(0.159004 2.50449e-07 0)
(0.159076 5.38215e-08 0)
(0.158977 2.97106e-07 0)
(0.159058 3.08962e-07 0)
(0.158918 3.68922e-07 0)
(0.159026 1.43422e-06 0)
(0.158712 3.1726e-06 0)
(0.99664 0.00409107 0)
(0.995498 0.00593354 0)
(0.994211 0.00657633 0)
(0.992535 0.00652897 0)
(0.990522 0.00638203 0)
(0.987804 0.00632168 0)
(0.984632 0.00634225 0)
(0.980833 0.00638336 0)
(0.976476 0.0064114 0)
(0.971503 0.00644208 0)
(0.965725 0.00646266 0)
(0.959312 0.0064973 0)
(0.951977 0.00652984 0)
(0.943909 0.00659325 0)
(0.934825 0.00667497 0)
(0.924764 0.00675662 0)
(0.913762 0.00682259 0)
(0.901634 0.00684786 0)
(0.888616 0.00687648 0)
(0.874324 0.00684734 0)
(0.859223 0.00676712 0)
(0.843134 0.00665041 0)
(0.826204 0.00650452 0)
(0.808716 0.00623582 0)
(0.791015 0.00574144 0)
(0.773708 0.00511313 0)
(0.757021 0.00435483 0)
(0.741617 0.00352745 0)
(0.727729 0.00277587 0)
(0.714918 0.0021595 0)
(0.703191 0.00170377 0)
(0.692133 0.00139988 0)
(0.681602 0.0011722 0)
(0.671577 0.00100364 0)
(0.661884 0.000917595 0)
(0.652273 0.000870759 0)
(0.642741 0.00082859 0)
(0.633561 0.000762294 0)
(0.624444 0.000697394 0)
(0.615472 0.000689586 0)
(0.606947 0.000708381 0)
(0.598106 0.000687967 0)
(0.589034 0.00063701 0)
(0.580793 0.00056591 0)
(0.572872 0.000532561 0)
(0.564762 0.000571765 0)
(0.556777 0.000563946 0)
(0.549105 0.000472726 0)
(0.541805 0.000405037 0)
(0.534781 0.00038912 0)
(0.527952 0.000373746 0)
(0.521715 0.000328061 0)
(0.515957 0.00027234 0)
(0.510342 0.000256551 0)
(0.505103 0.000247826 0)
(0.500247 0.000208394 0)
(0.495685 0.000176979 0)
(0.491467 0.00016011 0)
(0.487652 0.000133288 0)
(0.48417 0.000113945 0)
(0.481132 9.86762e-05 0)
(0.478359 7.49668e-05 0)
(0.475892 6.39967e-05 0)
(0.473766 5.82685e-05 0)
(0.471952 4.07005e-05 0)
(0.470251 3.01623e-05 0)
(0.468808 3.11138e-05 0)
(0.467588 2.17514e-05 0)
(0.4666 8.29714e-06 0)
(0.465702 7.90908e-06 0)
(0.465023 9.40761e-06 0)
(0.464425 3.89099e-06 0)
(0.464032 -9.24302e-07 0)
(0.463645 1.02068e-07 0)
(0.463425 1.39173e-06 0)
(0.46316 -1.62595e-07 0)
(0.463055 -6.26515e-07 0)
(0.462888 -1.22778e-06 0)
(0.46287 -8.04974e-07 0)
(0.462775 -1.50807e-06 0)
(0.462825 -1.70598e-06 0)
(0.462775 -1.47013e-06 0)
(0.462883 -1.91092e-06 0)
(0.462844 -1.03373e-06 0)
(0.463 -1.59216e-06 0)
(0.462943 -8.52464e-07 0)
(0.463126 -8.39864e-07 0)
(0.463038 -9.28472e-07 0)
(0.463227 -2.12432e-07 0)
(0.463106 -7.21784e-07 0)
(0.463293 -8.98388e-08 0)
(0.463136 -5.14593e-08 0)
(0.463333 -8.48137e-08 0)
(0.463127 5.88708e-07 0)
(0.463348 5.47747e-07 0)
(0.463089 7.85846e-07 0)
(0.463332 1.59269e-06 0)
(0.463013 1.64467e-06 0)
(0.463274 2.78654e-06 0)
(0.462838 1.1523e-05 0)
(0.997202 0.003548 0)
(0.996509 0.00475304 0)
(0.996189 0.00545225 0)
(0.996074 0.00556474 0)
(0.996185 0.00549008 0)
(0.996187 0.00546608 0)
(0.9962 0.00552558 0)
(0.996184 0.00566034 0)
(0.996096 0.00579825 0)
(0.995978 0.00596812 0)
(0.995625 0.00612884 0)
(0.995182 0.00629869 0)
(0.994475 0.00647414 0)
(0.993563 0.00665388 0)
(0.992401 0.00687354 0)
(0.990864 0.00706796 0)
(0.989142 0.0072584 0)
(0.986903 0.00739363 0)
(0.984379 0.0075383 0)
(0.981237 0.00765217 0)
(0.977702 0.00767829 0)
(0.973631 0.00768968 0)
(0.969073 0.00763705 0)
(0.964066 0.00746027 0)
(0.958709 0.00703751 0)
(0.953039 0.00639933 0)
(0.94724 0.00565926 0)
(0.941402 0.00478227 0)
(0.935755 0.00394007 0)
(0.93014 0.00325244 0)
(0.92465 0.00273349 0)
(0.919182 0.00241295 0)
(0.913757 0.00219414 0)
(0.908316 0.00203562 0)
(0.902872 0.00197928 0)
(0.897327 0.00197029 0)
(0.891701 0.00194067 0)
(0.886019 0.00186422 0)
(0.880274 0.00182164 0)
(0.874358 0.00180927 0)
(0.868525 0.00179347 0)
(0.862537 0.0018068 0)
(0.856068 0.00177149 0)
(0.849865 0.00162832 0)
(0.843747 0.00155625 0)
(0.837274 0.00160616 0)
(0.830907 0.00158301 0)
(0.824558 0.00143997 0)
(0.818114 0.00132826 0)
(0.811822 0.00129643 0)
(0.805403 0.00125238 0)
(0.799154 0.00113096 0)
(0.793238 0.00100736 0)
(0.787196 0.00095789 0)
(0.781455 0.000910119 0)
(0.776082 0.000822644 0)
(0.77076 0.000753738 0)
(0.765537 0.000698998 0)
(0.760607 0.000623763 0)
(0.755707 0.00054904 0)
(0.751246 0.000480536 0)
(0.747096 0.000414601 0)
(0.743222 0.000366821 0)
(0.739635 0.000319899 0)
(0.73649 0.000268664 0)
(0.733416 0.000236441 0)
(0.730632 0.000212367 0)
(0.728096 0.000170059 0)
(0.725877 0.000130745 0)
(0.72373 0.000113153 0)
(0.72194 9.59069e-05 0)
(0.720264 6.9848e-05 0)
(0.71893 4.98352e-05 0)
(0.71762 4.06175e-05 0)
(0.716661 3.31113e-05 0)
(0.715678 2.28563e-05 0)
(0.715014 1.62137e-05 0)
(0.714304 1.03107e-05 0)
(0.713887 6.73166e-06 0)
(0.713409 2.1248e-06 0)
(0.713195 -9.7817e-07 0)
(0.712885 -3.33861e-06 0)
(0.712852 -5.63047e-06 0)
(0.71265 -6.15889e-06 0)
(0.712785 -7.27235e-06 0)
(0.712645 -6.72526e-06 0)
(0.712897 -6.01921e-06 0)
(0.712787 -5.50099e-06 0)
(0.713078 -3.51515e-06 0)
(0.712971 -3.26499e-06 0)
(0.713251 -1.56481e-06 0)
(0.713111 -1.037e-06 0)
(0.713382 -4.99928e-07 0)
(0.713176 6.14207e-07 0)
(0.713449 7.25846e-07 0)
(0.713188 1.62873e-06 0)
(0.713448 2.15703e-06 0)
(0.713157 3.98911e-06 0)
(0.713389 3.35844e-06 0)
(0.713041 1.91888e-05 0)
(0.997739 0.00339564 0)
(0.997086 0.00442993 0)
(0.996688 0.00526463 0)
(0.996583 0.00562273 0)
(0.99675 0.00569107 0)
(0.996939 0.00571815 0)
(0.997182 0.00576884 0)
(0.997464 0.00587944 0)
(0.997794 0.00599521 0)
(0.998134 0.00615669 0)
(0.998454 0.00630418 0)
(0.998734 0.00647076 0)
(0.99902 0.00663913 0)
(0.999221 0.00681606 0)
(0.999459 0.00703129 0)
(0.99957 0.00722357 0)
(0.99979 0.00743682 0)
(0.999871 0.00759128 0)
(0.999978 0.00776866 0)
(0.999912 0.00793207 0)
(0.99981 0.00798943 0)
(0.999574 0.00803265 0)
(0.999253 0.00797797 0)
(0.998756 0.00781123 0)
(0.998229 0.00738704 0)
(0.99737 0.00675012 0)
(0.996441 0.00604261 0)
(0.995223 0.00520692 0)
(0.993897 0.00439536 0)
(0.992347 0.00371306 0)
(0.990651 0.00318278 0)
(0.98883 0.00286133 0)
(0.987036 0.00263762 0)
(0.985095 0.00249525 0)
(0.983244 0.00246159 0)
(0.981287 0.00245079 0)
(0.979365 0.00242041 0)
(0.97735 0.00233774 0)
(0.975216 0.0022697 0)
(0.97299 0.00225809 0)
(0.97087 0.0022502 0)
(0.968596 0.00227272 0)
(0.966107 0.00225592 0)
(0.963635 0.00208547 0)
(0.961009 0.00199919 0)
(0.958177 0.00208227 0)
(0.955536 0.00206709 0)
(0.95275 0.00191321 0)
(0.949724 0.00179302 0)
(0.946747 0.00176357 0)
(0.943735 0.00173964 0)
(0.940645 0.00160861 0)
(0.93757 0.00146461 0)
(0.934253 0.00142291 0)
(0.9311 0.0013609 0)
(0.92799 0.00123822 0)
(0.924865 0.00115984 0)
(0.921749 0.00110094 0)
(0.918848 0.00101682 0)
(0.915806 0.000938565 0)
(0.91299 0.000853362 0)
(0.910136 0.000760856 0)
(0.907335 0.000693409 0)
(0.904542 0.000620242 0)
(0.902015 0.000536992 0)
(0.899469 0.000484878 0)
(0.897238 0.000446921 0)
(0.895136 0.000384349 0)
(0.893249 0.000326928 0)
(0.8913 0.000296333 0)
(0.889639 0.000263716 0)
(0.887928 0.000217983 0)
(0.886485 0.00018053 0)
(0.884967 0.000156028 0)
(0.883792 0.000133774 0)
(0.882536 0.000109028 0)
(0.881599 8.93706e-05 0)
(0.880596 7.16162e-05 0)
(0.879892 5.70907e-05 0)
(0.879128 4.22992e-05 0)
(0.878635 3.09467e-05 0)
(0.87806 2.07425e-05 0)
(0.877775 1.19791e-05 0)
(0.877345 4.96663e-06 0)
(0.877268 -1.31258e-06 0)
(0.876957 -5.14096e-06 0)
(0.877047 -8.28584e-06 0)
(0.876844 -9.92903e-06 0)
(0.877037 -9.84016e-06 0)
(0.876931 -9.78611e-06 0)
(0.877178 -7.7627e-06 0)
(0.877112 -6.13064e-06 0)
(0.87738 -4.52664e-06 0)
(0.877279 -1.63281e-06 0)
(0.877536 -1.25236e-06 0)
(0.877383 1.71208e-06 0)
(0.877596 1.6548e-06 0)
(0.877413 5.78439e-06 0)
(0.877577 3.43853e-06 0)
(0.877346 2.33684e-05 0)
(0.998087 0.003401 0)
(0.997473 0.00430772 0)
(0.997007 0.00513691 0)
(0.996833 0.00560403 0)
(0.996962 0.00573559 0)
(0.997164 0.00578311 0)
(0.997443 0.00581093 0)
(0.997742 0.00587253 0)
(0.998132 0.00594961 0)
(0.998489 0.00608283 0)
(0.998884 0.00623473 0)
(0.999204 0.00640438 0)
(0.999585 0.00658957 0)
(0.999875 0.00677365 0)
(1.00024 0.00698658 0)
(1.00052 0.00717843 0)
(1.00095 0.00739477 0)
(1.00132 0.00755707 0)
(1.0018 0.00771499 0)