/*--------------------------------*- C++ -*----------------------------------*\
  =========                 |
  \\      /  F ield         | OpenFOAM: The Open Source CFD Toolbox
   \\    /   O peration     | Website:  https://openfoam.org
    \\  /    A nd           | Version:  10
     \\/     M anipulation  |
\*---------------------------------------------------------------------------*/
FoamFile
{
    format      ascii;
    class       surfaceScalarField;
    location    "1";
    object      phi;
}
// * * * * * * * * * * * * * * * * * * * * * * * * * * * * * * * * * * * * * //

dimensions      [0 3 -1 0 0 0 0];

internalField   nonuniform List<scalar> 
9440
(
3.8815e-06
-6.60067e-09
3.87777e-06
-2.44919e-08
3.8793e-06
1.11742e-08
3.87892e-06
1.21629e-08
3.8799e-06
7.70083e-09
3.87951e-06
-1.49766e-08
3.8796e-06
1.01564e-09
3.87939e-06
-2.65338e-08
3.87984e-06
7.02375e-09
3.88089e-06
-1.74536e-08
3.88207e-06
7.12207e-09
3.88357e-06
-9.85874e-09
3.88439e-06
4.32851e-09
3.88522e-06
-1.19068e-08
3.88558e-06
-4.7281e-10
3.88603e-06
-1.35068e-08
3.88501e-06
1.50264e-09
3.88053e-06
-6.94073e-09
3.86674e-06
1.87549e-08
3.39221e-08
3.84452e-06
4.18341e-06
-4.14936e-09
4.18668e-06
-2.77594e-08
4.18375e-06
1.40958e-08
4.18794e-06
7.98043e-09
4.18587e-06
9.76909e-09
4.18776e-06
-1.68687e-08
4.18683e-06
1.9508e-09
4.18637e-06
-2.60757e-08
4.18733e-06
6.06188e-09
4.18569e-06
-1.58125e-08
4.18797e-06
4.8364e-09
4.18686e-06
-8.74544e-09
4.18955e-06
1.6432e-09
4.18885e-06
-1.12083e-08
4.1909e-06
-2.53049e-09
4.18765e-06
-1.02528e-08
4.18617e-06
2.98216e-09
4.17513e-06
4.1016e-09
4.16766e-06
2.62207e-08
4.06687e-08
4.16092e-06
4.51756e-06
-1.64909e-09
4.52009e-06
-3.02897e-08
4.51864e-06
1.55438e-08
4.52062e-06
6.0096e-09
4.52105e-06
9.33757e-09
4.52011e-06
-1.59335e-08
4.52242e-06
-3.54075e-10
4.51886e-06
-2.25221e-08
4.52327e-06
1.64998e-09
4.51876e-06
-1.1294e-08
4.52406e-06
-4.69856e-10
4.51995e-06
-4.63507e-09
4.52585e-06
-4.25486e-09
4.52238e-06
-7.73565e-09
4.52651e-06
-6.66695e-09
4.52149e-06
-5.23041e-09
4.52169e-06
2.78618e-09
4.50894e-06
1.68448e-08
4.50229e-06
3.28789e-08
4.66407e-08
4.49631e-06
4.8801e-06
-7.98903e-10
4.88032e-06
-3.05161e-08
4.88178e-06
1.40913e-08
4.88105e-06
6.7315e-09
4.88406e-06
6.33161e-09
4.88078e-06
-1.2652e-08
4.88492e-06
-4.49589e-09
4.8803e-06
-1.79009e-08
4.88509e-06
-3.1393e-09
4.88184e-06
-8.04998e-09
4.88625e-06
-4.87569e-09
4.88636e-06
-4.7425e-09
4.88881e-06
-6.70262e-09
4.88827e-06
-7.20264e-09
4.88841e-06
-6.80741e-09
4.88468e-06
-1.49564e-09
4.87571e-06
1.17515e-08
4.86635e-06
2.62054e-08
4.86158e-06
3.76531e-08
4.99606e-08
4.85826e-06
5.27043e-06
-5.83344e-10
5.26937e-06
-2.94549e-08
5.27267e-06
1.07941e-08
5.27055e-06
8.8485e-09
5.27494e-06
1.93657e-09
5.27075e-06
-8.46e-09
5.2752e-06
-8.9382e-09
5.27107e-06
-1.37755e-08
5.27524e-06
-7.30881e-09
5.27525e-06
-8.06234e-09
5.27781e-06
-7.42991e-09
5.27864e-06
-5.57944e-09
5.28037e-06
-8.43333e-09
5.27968e-06
-6.50529e-09
5.27725e-06
-4.37856e-09
5.26856e-06
7.19012e-09
5.2589e-06
2.14105e-08
5.2537e-06
3.14128e-08
5.25025e-06
4.11007e-08
5.19237e-08
5.24828e-06
5.69145e-06
-5.76401e-10
5.68942e-06
-2.7425e-08
5.69402e-06
6.19814e-09
5.69146e-06
1.14119e-08
5.69569e-06
-2.29359e-09
5.69274e-06
-5.51407e-09
5.69503e-06
-1.12272e-08
5.69503e-06
-1.37749e-08
5.69624e-06
-8.51684e-09
5.69822e-06
-1.00504e-08
5.70022e-06
-9.42188e-09
5.70128e-06
-6.64574e-09
5.70177e-06
-8.91831e-09
5.69945e-06
-4.18713e-09
5.69113e-06
3.93796e-09
5.68141e-06
1.69136e-08
5.67641e-06
2.64095e-08
5.67271e-06
3.51138e-08
5.6702e-06
4.3614e-08
5.32559e-08
5.66886e-06
6.14598e-06
-6.86386e-10
6.14324e-06
-2.46845e-08
6.1485e-06
9.38203e-10
6.14647e-06
1.34435e-08
6.14915e-06
-4.97821e-09
6.1489e-06
-5.25969e-09
6.14827e-06
-1.06033e-08
6.15081e-06
-1.63127e-08
6.15253e-06
-1.02317e-08
6.15398e-06
-1.15037e-08
6.15595e-06
-1.13894e-08
6.15667e-06
-7.37182e-09
6.1546e-06
-6.84508e-09
6.14773e-06
2.67999e-09
6.1372e-06
1.44766e-08
6.13214e-06
2.19649e-08
6.12856e-06
2.9992e-08
6.12587e-06
3.78071e-08
6.12368e-06
4.58041e-08
5.42111e-08
6.12272e-06
6.63672e-06
-8.40933e-10
6.6338e-06
-2.177e-08
6.63833e-06
-3.58744e-09
6.63853e-06
1.3244e-08
6.63845e-06
-4.89685e-09
6.64145e-06
-8.25928e-09
6.64033e-06
-9.48422e-09
6.64208e-06
-1.8069e-08
6.64504e-06
-1.3189e-08
6.64646e-06
-1.29273e-08
6.64726e-06
-1.21862e-08
6.64581e-06
-5.91832e-09
6.63871e-06
2.52087e-10
6.62935e-06
1.20372e-08
6.62401e-06
1.98189e-08
6.62039e-06
2.55822e-08
6.61776e-06
3.26268e-08
6.61527e-06
4.02974e-08
6.61337e-06
4.76984e-08
5.49201e-08
6.61266e-06
7.16657e-06
-9.7664e-10
7.16399e-06
-1.91989e-08
7.16602e-06
-5.61474e-09
7.17012e-06
9.14265e-09
7.16881e-06
-3.58847e-09
7.17122e-06
-1.06652e-08
7.17317e-06
-1.14359e-08
7.17356e-06
-1.84553e-08
7.17554e-06
-1.51653e-08
7.17715e-06
-1.4538e-08
7.17624e-06
-1.12755e-08
7.17044e-06
-1.21752e-10
7.16096e-06
9.73224e-09
7.15534e-06
1.76552e-08
7.15146e-06
2.36961e-08
7.14858e-06
2.84691e-08
7.14611e-06
3.50957e-08
7.14385e-06
4.25523e-08
7.14233e-06
4.92226e-08
5.55456e-08
7.1417e-06
7.73871e-06
-1.07839e-09
7.73684e-06
-1.73361e-08
7.73668e-06
-5.45072e-09
7.74242e-06
3.39858e-09
7.74375e-06
-4.91495e-09
7.74326e-06
-1.01743e-08
7.74647e-06
-1.46473e-08
7.74761e-06
-1.95988e-08
7.74833e-06
-1.58783e-08
7.74742e-06
-1.36306e-08
7.74211e-06
-5.96756e-09
7.73402e-06
7.96605e-09
7.72815e-06
1.56061e-08
7.72477e-06
2.10299e-08
7.72202e-06
2.64511e-08
7.71917e-06
3.13181e-08
7.71674e-06
3.75225e-08
7.71483e-06
4.44636e-08
7.71359e-06
5.04679e-08
5.61091e-08
7.71302e-06
8.35655e-06
-1.16864e-09
8.35559e-06
-1.638e-08
8.35447e-06
-4.32176e-09
8.35942e-06
-1.55517e-09
8.36352e-06
-9.01075e-09
8.36382e-06
-1.04764e-08
8.36441e-06
-1.52438e-08
8.36597e-06
-2.1154e-08
8.36502e-06
-1.49294e-08
8.35967e-06
-8.27639e-09
8.35264e-06
1.05517e-09
8.34726e-06
1.33499e-08
8.34354e-06
1.93286e-08
8.34084e-06
2.37244e-08
8.33825e-06
2.90482e-08
8.33545e-06
3.41143e-08
8.33322e-06
3.97501e-08
8.33161e-06
4.60719e-08
8.33054e-06
5.15428e-08
5.65532e-08
8.33009e-06
9.02385e-06
-1.37189e-09
9.02327e-06
-1.57968e-08
9.02325e-06
-4.30933e-09
9.02437e-06
-2.67221e-09
9.03086e-06
-1.55025e-08
9.03352e-06
-1.3129e-08
9.03246e-06
-1.41846e-08
9.03138e-06
-2.00806e-08
9.0293e-06
-1.28446e-08
9.02185e-06
-8.27728e-10
9.0149e-06
8.00954e-09
9.01142e-06
1.68284e-08
9.00884e-06
2.19029e-08
9.00634e-06
2.6225e-08
9.00385e-06
3.1545e-08
9.00125e-06
3.67077e-08
8.99913e-06
4.18725e-08
8.9978e-06
4.74063e-08
8.99686e-06
5.24819e-08
5.68551e-08
8.99655e-06
9.74442e-06
-1.68818e-09
9.74427e-06
-1.56468e-08
9.74589e-06
-5.93452e-09
9.74485e-06
-1.62456e-09
9.74959e-06
-2.02453e-08
9.75462e-06
-1.81549e-08
9.7541e-06
-1.36707e-08
9.74882e-06
-1.4796e-08
9.74355e-06
-7.57572e-09
9.73813e-06
4.58641e-09
9.73328e-06
1.28639e-08
9.73005e-06
2.00571e-08
9.72741e-06
2.45397e-08
9.72508e-06
2.85567e-08
9.72281e-06
3.38179e-08
9.72043e-06
3.90827e-08
9.7185e-06
4.38069e-08
9.71732e-06
4.85837e-08
9.71656e-06
5.32425e-08
5.69961e-08
9.71642e-06
1.05225e-05
-2.12795e-09
1.05218e-05
-1.49715e-08
1.05253e-05
-9.37372e-09
1.05248e-05
-1.14448e-09
1.05253e-05
-2.06998e-08
1.05304e-05
-2.328e-08
1.05313e-05
-1.45568e-08
1.05248e-05
-8.3739e-09
1.05166e-05
6.85991e-10
1.05119e-05
9.30484e-09
1.05092e-05
1.54983e-08
1.05067e-05
2.26285e-08
1.05039e-05
2.72901e-08
1.05015e-05
3.09839e-08
1.04994e-05
3.59149e-08
1.04973e-05
4.11783e-08
1.04956e-05
4.55365e-08
1.04944e-05
4.97239e-08
1.04939e-05
5.37851e-08
5.69629e-08
1.04939e-05
1.13626e-05
-2.57447e-09
1.13615e-05
-1.39015e-08
1.13653e-05
-1.31676e-08
1.13679e-05
-3.71747e-09
1.1365e-05
-1.77779e-08
1.13652e-05
-2.3537e-08
1.13666e-05
-1.59401e-08
1.13636e-05
-5.31701e-09
1.1356e-05
8.29515e-09
1.13499e-05
1.53299e-08
1.1347e-05
1.84135e-08
1.13451e-05
2.45258e-08
1.13427e-05
2.97181e-08
1.13402e-05
3.34776e-08
1.13382e-05
3.79494e-08
1.13364e-05
4.29625e-08
1.13349e-05
4.70429e-08
1.13339e-05
5.07456e-08
1.13335e-05
5.4138e-08
5.67581e-08
1.13337e-05
1.22696e-05
-2.84979e-09
1.22694e-05
-1.37272e-08
1.22711e-05
-1.47979e-08
1.22762e-05
-8.88333e-09
1.22734e-05
-1.49142e-08
1.2268e-05
-1.81362e-08
1.2265e-05
-1.29645e-08
1.22639e-05
-4.1886e-09
1.22619e-05
1.02539e-08
1.22569e-05
2.03364e-08
1.22527e-05
2.26307e-08
1.22505e-05
2.66597e-08
1.22485e-05
3.17225e-08
1.22462e-05
3.5815e-08
1.22442e-05
3.99197e-08
1.22427e-05
4.45243e-08
1.22414e-05
4.82833e-08
1.22406e-05
5.16053e-08
1.22404e-05
5.43514e-08
5.6413e-08
1.22407e-05
1.32491e-05
-3.03402e-09
1.32504e-05
-1.49814e-08
1.32497e-05
-1.41143e-08
1.32537e-05
-1.288e-08
1.32535e-05
-1.476e-08
1.32469e-05
-1.15451e-08
1.32401e-05
-6.16238e-09
1.32371e-05
-1.13796e-09
1.32372e-05
1.0129e-08
1.32354e-05
2.21343e-08
1.32317e-05
2.6324e-08
1.32289e-05
2.94926e-08
1.32268e-05
3.38e-08
1.32248e-05
3.78709e-08
1.32229e-05
4.17523e-08
1.32216e-05
4.58665e-08
1.32206e-05
4.9282e-08
1.32199e-05
5.22354e-08
1.32199e-05
5.44254e-08
5.5941e-08
1.32203e-05
1.4307e-05
-3.31071e-09
1.43086e-05
-1.65789e-08
1.43085e-05
-1.39915e-08
1.43078e-05
-1.22163e-08
1.43088e-05
-1.56973e-08
1.43049e-05
-7.67477e-09
1.42978e-05
9.07792e-10
1.42925e-05
4.18907e-09
1.42912e-05
1.14221e-08
1.42908e-05
2.25011e-08
1.42887e-05
2.84325e-08
1.42859e-05
3.22775e-08
1.42837e-05
3.60539e-08
1.42817e-05
3.98866e-08
1.428e-05
4.33753e-08
1.42789e-05
4.69928e-08
1.42781e-05
5.00604e-08
1.42778e-05
5.2612e-08
1.42779e-05
5.43375e-08
5.53536e-08
1.42784e-05
1.54494e-05
-3.71786e-09
1.54498e-05
-1.70182e-08
1.54514e-05
-1.55812e-08
1.54488e-05
-9.56448e-09
1.54465e-05
-1.34548e-08
1.54449e-05
-6.07908e-09
1.54404e-05
5.4372e-09
1.54347e-05
9.93195e-09
1.54315e-05
1.46269e-08
1.54307e-05
2.3251e-08
1.54295e-05
2.9681e-08
1.54275e-05
3.42271e-08
1.54254e-05
3.82056e-08
1.54234e-05
4.18237e-08
1.54219e-05
4.48698e-08
1.5421e-05
4.79187e-08
1.54205e-05
5.06053e-08
1.54203e-05
5.27326e-08
1.54206e-05
5.40727e-08
5.46491e-08
1.54213e-05
1.66829e-05
-4.12136e-09
1.66823e-05
-1.64406e-08
1.66838e-05
-1.71168e-08
1.66821e-05
-7.84418e-09
1.66771e-05
-8.50059e-09
1.66747e-05
-3.60528e-09
1.66725e-05
7.56307e-09
1.66683e-05
1.41807e-08
1.66646e-05
1.83165e-08
1.66627e-05
2.51557e-08
1.66615e-05
3.08919e-08
1.666e-05
3.56749e-08
1.66585e-05
3.97657e-08
1.66568e-05
4.35525e-08
1.66554e-05
4.6212e-08
1.66546e-05
4.87101e-08
1.66543e-05
5.09395e-08
1.66544e-05
5.26078e-08
1.66549e-05
5.36216e-08
5.38124e-08
1.66557e-05
1.80146e-05
-4.33597e-09
1.80136e-05
-1.5385e-08
1.80134e-05
-1.69383e-08
1.8013e-05
-7.47817e-09
1.80085e-05
-3.93647e-09
1.80043e-05
5.44513e-10
1.80023e-05
9.58967e-09
1.79998e-05
1.66845e-08
1.79965e-05
2.15805e-08
1.79942e-05
2.75106e-08
1.79926e-05
3.24485e-08
1.79912e-05
3.70822e-08
1.79901e-05
4.09007e-08
1.79889e-05
4.47399e-08
1.79877e-05
4.73818e-08
1.79871e-05
4.9289e-08
1.7987e-05
5.10851e-08
1.79873e-05
5.22633e-08
1.7988e-05
5.29628e-08
5.28347e-08
1.7989e-05
1.94526e-05
-4.28327e-09
1.94513e-05
-1.40227e-08
1.94495e-05
-1.51833e-08
1.94487e-05
-6.68796e-09
1.94459e-05
-1.12778e-09
1.94419e-05
4.56227e-09
1.94391e-05
1.23381e-08
1.9437e-05
1.88018e-08
1.94346e-05
2.3975e-08
1.94324e-05
2.97626e-08
1.94306e-05
3.42402e-08
1.94293e-05
3.84077e-08
1.94282e-05
4.19776e-08
1.94275e-05
4.53979e-08
1.94267e-05
4.82199e-08
1.94264e-05
4.96089e-08
1.94264e-05
5.10247e-08
1.9427e-05
5.17446e-08
1.94278e-05
5.21012e-08
5.17202e-08
1.94289e-05
2.10055e-05
-4.01409e-09
2.10038e-05
-1.22995e-08
2.10013e-05
-1.26416e-08
2.09997e-05
-5.11542e-09
2.09976e-05
1.01611e-09
2.09946e-05
7.557e-09
2.09917e-05
1.51974e-08
2.09894e-05
2.11007e-08
2.09875e-05
2.58935e-08
2.09856e-05
3.16493e-08
2.09839e-05
3.58997e-08
2.09826e-05
3.97065e-08
2.09817e-05
4.29269e-08
2.09812e-05
4.58371e-08
2.09809e-05
4.8542e-08
2.09809e-05
4.96685e-08
2.09812e-05
5.07187e-08
2.09819e-05
5.10575e-08
2.09829e-05
5.10464e-08
5.04581e-08
2.09842e-05
2.26825e-05
-3.55415e-09
2.26804e-05
-1.02454e-08
2.26776e-05
-9.87924e-09
2.26755e-05
-2.95423e-09
2.26732e-05
3.30177e-09
2.26709e-05
9.83322e-09
2.26686e-05
1.75544e-08
2.26663e-05
2.33758e-08
2.26645e-05
2.77321e-08
2.2663e-05
3.31141e-08
2.26616e-05
3.73347e-08
2.26605e-05
4.07861e-08
2.26597e-05
4.36974e-08
2.26594e-05
4.61074e-08
2.26596e-05
4.84109e-08
2.26598e-05
4.94417e-08
2.26604e-05
5.01443e-08
2.26612e-05
5.01923e-08
2.26625e-05
4.98211e-08
4.90439e-08
2.26639e-05
2.44933e-05
-2.92981e-09
2.44909e-05
-7.86174e-09
2.44881e-05
-6.99352e-09
2.44857e-05
-6.17079e-10
2.44834e-05
5.65928e-09
2.44812e-05
1.19777e-08
2.44794e-05
1.93535e-08
2.44775e-05
2.53098e-08
2.44757e-05
2.95014e-08
2.44745e-05
3.43312e-08
2.44734e-05
3.83953e-08
2.44726e-05
4.16026e-08
2.44721e-05
4.42207e-08
2.4472e-05
4.61596e-08
2.44725e-05
4.79508e-08
2.4473e-05
4.88964e-08
2.44739e-05
4.92947e-08
2.4475e-05
4.91054e-08
2.44764e-05
4.8442e-08
4.74642e-08
2.44779e-05
2.64488e-05
-2.18625e-09
2.64463e-05
-5.38454e-09
2.64433e-05
-3.96698e-09
2.64408e-05
1.86529e-09
2.64385e-05
7.96105e-09
2.64365e-05
1.40236e-08
2.64349e-05
2.09316e-08
2.64335e-05
2.67602e-08
2.64319e-05
3.10134e-08
2.64309e-05
3.53719e-08
2.64302e-05
3.90551e-08
2.64298e-05
4.20922e-08
2.64296e-05
4.43837e-08
2.64298e-05
4.59395e-08
2.64305e-05
4.73037e-08
2.64314e-05
4.80004e-08
2.64325e-05
4.81831e-08
2.64338e-05
4.7766e-08
2.64353e-05
4.69114e-08
4.57294e-08
2.64371e-05
2.85605e-05
-1.37551e-09
2.8558e-05
-2.91896e-09
2.8555e-05
-9.00711e-10
2.85524e-05
4.48171e-09
2.85501e-05
1.01896e-08
2.85482e-05
1.59052e-08
2.85468e-05
2.23316e-08
2.85457e-05
2.78959e-08
2.85447e-05
3.20563e-08
2.85439e-05
3.61705e-08
2.85435e-05
3.94076e-08
2.85435e-05
4.21326e-08
2.85436e-05
4.42349e-08
2.85442e-05
4.53837e-08
2.8545e-05
4.64486e-08
2.85462e-05
4.68124e-08
2.85476e-05
4.67872e-08
2.85492e-05
4.61847e-08
2.85509e-05
4.51782e-08
4.38655e-08
2.85528e-05
3.08408e-05
-5.3457e-10
3.08384e-05
-4.99855e-10
3.08354e-05
2.11639e-09
3.08328e-05
7.071e-09
3.08306e-05
1.23692e-08
3.08289e-05
1.76319e-08
3.08277e-05
2.34991e-08
3.08269e-05
2.8766e-08
3.08262e-05
3.26881e-08
3.08259e-05
3.65464e-08
3.08258e-05
3.95059e-08
3.08262e-05
4.1706e-08
3.08267e-05
4.37051e-08
3.08276e-05
4.4542e-08
3.08288e-05
4.52582e-08
3.08302e-05
4.53947e-08
3.08319e-05
4.50935e-08
3.08337e-05
4.43934e-08
3.08356e-05
4.32244e-08
4.18665e-08
3.08376e-05
3.33033e-05
3.01794e-10
3.33009e-05
1.82787e-09
3.32981e-05
4.96573e-09
3.32955e-05
9.61905e-09
3.32935e-05
1.44478e-08
3.32919e-05
1.91862e-08
3.3291e-05
2.44265e-08
3.32904e-05
2.93044e-08
3.32901e-05
3.29885e-08
3.32902e-05
3.64417e-08
3.32905e-05
3.92283e-08
3.32913e-05
4.09483e-08
3.32923e-05
4.26757e-08
3.32934e-05
4.34328e-08
3.32949e-05
4.37312e-08
3.32966e-05
4.37181e-08
3.32986e-05
4.31644e-08
3.33006e-05
4.23659e-08
3.33027e-05
4.11021e-08
3.96833e-08
3.33049e-05
3.59623e-05
1.11677e-09
3.59602e-05
3.97592e-09
3.59575e-05
7.62704e-09
3.59551e-05
1.20321e-08
3.59532e-05
1.63895e-08
3.59518e-05
2.05363e-08
3.59511e-05
2.51109e-08
3.59509e-05
2.94848e-08
3.5951e-05
3.29037e-08
3.59515e-05
3.59463e-08
3.59523e-05
3.84303e-08
3.59533e-05
3.99135e-08
3.59548e-05
4.12224e-08
3.59563e-05
4.19155e-08
3.59581e-05
4.19566e-08
3.59601e-05
4.16997e-08
3.59622e-05
4.10413e-08
3.59645e-05
4.00736e-08
3.59668e-05
3.8824e-08
3.73182e-08
3.59692e-05
3.88337e-05
1.88318e-09
3.88317e-05
5.93433e-09
3.88293e-05
1.00705e-08
3.88271e-05
1.42186e-08
3.88254e-05
1.81061e-08
3.88243e-05
2.16655e-08
3.88238e-05
2.55169e-08
3.8824e-05
2.93345e-08
3.88245e-05
3.23733e-08
3.88254e-05
3.50673e-08
3.88267e-05
3.71594e-08
3.88281e-05
3.8468e-08
3.88299e-05
3.94793e-08
3.88319e-05
3.9913e-08
3.88339e-05
3.99003e-08
3.88363e-05
3.93775e-08
3.88386e-05
3.86806e-08
3.88411e-05
3.75926e-08
3.88436e-05
3.63465e-08
3.48325e-08
3.88461e-05
4.19343e-05
2.57991e-09
4.19326e-05
7.68394e-09
4.19304e-05
1.22394e-08
4.19285e-05
1.6134e-08
4.19271e-05
1.9534e-08
4.19262e-05
2.25067e-08
4.19261e-05
2.56228e-08
4.19266e-05
2.88429e-08
4.19275e-05
3.14423e-08
4.19289e-05
3.37323e-08
4.19305e-05
3.55385e-08
4.19324e-05
3.65624e-08
4.19345e-05
3.73973e-08
4.19369e-05
3.75435e-08
4.19393e-05
3.74465e-08
4.19419e-05
3.68157e-08
4.19445e-05
3.60246e-08
4.19472e-05
3.49657e-08
4.19498e-05
3.36705e-08
3.22182e-08
4.19525e-05
4.52826e-05
3.18555e-09
4.5281e-05
9.19658e-09
4.52792e-05
1.40739e-08
4.52776e-05
1.76992e-08
4.52766e-05
2.0614e-08
4.5276e-05
2.30201e-08
4.52762e-05
2.54448e-08
4.52771e-05
2.79937e-08
4.52784e-05
3.01457e-08
4.52801e-05
3.19826e-08
4.52821e-05
3.35451e-08
4.52844e-05
3.42908e-08
4.52869e-05
3.48962e-08
4.52895e-05
3.48914e-08
4.52924e-05
3.46359e-08
4.52952e-05
3.39818e-08
4.52981e-05
3.30933e-08
4.5301e-05
3.20552e-08
4.53039e-05
3.07971e-08
2.95421e-08
4.53066e-05
4.88981e-05
3.69119e-09
4.88969e-05
1.04307e-08
4.88954e-05
1.55133e-08
4.88943e-05
1.88209e-08
4.88936e-05
2.13076e-08
4.88935e-05
2.31331e-08
4.8894e-05
2.49575e-08
4.88951e-05
2.68413e-08
4.88968e-05
2.8527e-08
4.88988e-05
2.99054e-08
4.89012e-05
3.11702e-08
4.89038e-05
3.17115e-08
4.89066e-05
3.20607e-08
4.89096e-05
3.1941e-08
4.89127e-05
3.15426e-08
4.89158e-05
3.08557e-08
4.89189e-05
2.99417e-08
4.89221e-05
2.89278e-08
4.89251e-05
2.7775e-08
2.6546e-08
4.89281e-05
5.28023e-05
4.0565e-09
5.28015e-05
1.13013e-08
5.28005e-05
1.65119e-08
5.27998e-05
1.94814e-08
5.27996e-05
2.15352e-08
5.27999e-05
2.28168e-08
5.28008e-05
2.40324e-08
5.28023e-05
2.53748e-08
5.28041e-05
2.67398e-08
5.28064e-05
2.75767e-08
5.28091e-05
2.85301e-08
5.28119e-05
2.88462e-08
5.2815e-05
2.89937e-08
5.28182e-05
2.8758e-08
5.28215e-05
2.82481e-08
5.28248e-05
2.75262e-08
5.28282e-05
2.65582e-08
5.28315e-05
2.56001e-08
5.28348e-05
2.45004e-08
2.3369e-08
5.2838e-05
5.70183e-05
4.23024e-09
5.7018e-05
1.16359e-08
5.70176e-05
1.69323e-08
5.70173e-05
1.97412e-08
5.70176e-05
2.1294e-08
5.70183e-05
2.20782e-08
5.70196e-05
2.27423e-08
5.70215e-05
2.34832e-08
5.70238e-05
2.44306e-08
5.70263e-05
2.50454e-08
5.7029e-05
2.58301e-08
5.70319e-05
2.59782e-08
5.7035e-05
2.58585e-08
5.70383e-05
2.55228e-08
5.70417e-05
2.47819e-08
5.70452e-05
2.41055e-08
5.70486e-05
2.31403e-08
5.70521e-05
2.2127e-08
5.70555e-05
2.10231e-08
1.98625e-08
5.7059e-05
6.1571e-05
4.149e-09
6.15714e-05
1.12216e-08
6.1572e-05
1.63558e-08
6.15726e-05
1.91788e-08
6.15731e-05
2.07388e-08
6.15739e-05
2.12507e-08
6.15752e-05
2.14916e-08
6.15773e-05
2.13844e-08
6.15798e-05
2.19156e-08
6.15828e-05
2.20291e-08
6.15862e-05
2.24341e-08
6.15894e-05
2.27528e-08
6.15929e-05
2.24357e-08
6.15964e-05
2.2038e-08
6.15998e-05
2.13829e-08
6.16033e-05
2.05838e-08
6.16067e-05
1.97137e-08
6.16102e-05
1.86507e-08
6.16135e-05
1.77117e-08
1.66195e-08
6.16167e-05
6.64872e-05
3.75171e-09
6.64887e-05
9.72375e-09
6.64905e-05
1.45534e-08
6.64925e-05
1.71704e-08
6.64945e-05
1.87928e-08
6.64964e-05
1.93021e-08
6.6498e-05
1.98773e-08
6.64996e-05
1.97904e-08
6.65014e-05
2.01719e-08
6.65031e-05
2.03067e-08
6.65055e-05
2.00137e-08
6.65083e-05
1.99583e-08
6.65112e-05
1.95598e-08
6.65145e-05
1.87511e-08
6.65178e-05
1.80469e-08
6.65215e-05
1.69209e-08
6.65252e-05
1.60035e-08
6.6529e-05
1.48171e-08
6.65326e-05
1.40866e-08
1.28564e-08
6.65364e-05
7.17957e-05
3.22709e-09
7.17977e-05
7.73661e-09
7.18004e-05
1.17785e-08
7.18037e-05
1.38701e-08
7.18071e-05
1.54587e-08
7.18104e-05
1.59579e-08
7.18135e-05
1.67702e-08
7.18165e-05
1.68719e-08
7.18193e-05
1.73238e-08
7.18218e-05
1.77791e-08
7.18241e-05
1.77396e-08
7.18264e-05
1.76158e-08
7.18285e-05
1.75276e-08
7.18306e-05
1.66558e-08
7.18328e-05
1.58568e-08
7.18356e-05
1.40461e-08
7.18389e-05
1.27375e-08
7.18425e-05
1.12352e-08
7.18467e-05
9.83727e-09
8.41884e-09
7.18512e-05
7.75287e-05
7.7532e-05
7.75364e-05
7.75416e-05
7.75471e-05
7.75526e-05
7.75583e-05
7.75639e-05
7.75696e-05
7.75755e-05
7.75811e-05
7.75866e-05
7.7592e-05
7.75969e-05
7.76014e-05
7.76049e-05
7.76078e-05
7.76102e-05
7.76123e-05
7.7614e-05
3.77604e-06
6.84716e-08
3.68173e-06
9.43108e-08
3.58216e-06
9.95749e-08
3.48386e-06
9.82988e-08
3.38565e-06
9.82045e-08
3.2862e-06
9.94528e-08
3.18496e-06
1.01241e-07
3.08188e-06
1.0308e-07
2.97699e-06
1.04887e-07
2.87032e-06
1.06675e-07
2.76188e-06
1.08444e-07
2.65159e-06
1.10284e-07
2.53946e-06
1.12128e-07
2.42556e-06
1.13901e-07
2.30983e-06
1.15734e-07
2.19232e-06
1.17512e-07
2.07323e-06
1.19088e-07
1.95289e-06
1.20342e-07
1.83161e-06
1.21272e-07
1.70988e-06
1.21732e-07
1.58857e-06
1.21316e-07
1.4691e-06
1.19468e-07
1.35359e-06
1.1551e-07
1.24436e-06
1.09226e-07
1.14469e-06
9.96711e-08
1.05819e-06
8.65036e-08
9.88022e-07
7.01662e-08
9.35435e-07
5.25866e-08
8.985e-07
3.69351e-08
8.73133e-07
2.53677e-08
8.55352e-07
1.7781e-08
8.42287e-07
1.30648e-08
8.31878e-07
1.04086e-08
8.22882e-07
8.99643e-09
8.14449e-07
8.43332e-09
8.05962e-07
8.48616e-09
7.97079e-07
8.88356e-09
7.87654e-07
9.42433e-09
7.77753e-07
9.9014e-09
7.67463e-07
1.02901e-08
7.56869e-07
1.05944e-08
7.4602e-07
1.08491e-08
7.3507e-07
1.09496e-08
7.24135e-07
1.0935e-08
7.13198e-07
1.0937e-08
7.02318e-07
1.08801e-08
6.91498e-07
1.08203e-08
6.80854e-07
1.06433e-08
6.70458e-07
1.03959e-08
6.60246e-07
1.02123e-08
6.50351e-07
9.89506e-09
6.40719e-07
9.63181e-09
6.31328e-07
9.39144e-09
6.22193e-07
9.13514e-09
6.13226e-07
8.96704e-09
6.04533e-07
8.69297e-09
5.96076e-07
8.45658e-09
5.87865e-07
8.21098e-09
5.79969e-07
7.89616e-09
5.72318e-07
7.65036e-09
5.64945e-07
7.37373e-09
5.57737e-07
7.2077e-09
5.50708e-07
7.02917e-09
5.43976e-07
6.73226e-09
5.37388e-07
6.5876e-09
5.3105e-07
6.33817e-09
5.24996e-07
6.05398e-09
5.1914e-07
5.85575e-09
5.13484e-07
5.65606e-09
5.08007e-07
5.47747e-09
5.02805e-07
5.20176e-09
4.97808e-07
4.99718e-09
4.92969e-07
4.83913e-09
4.88503e-07
4.46567e-09
4.84178e-07
4.32518e-09
4.79906e-07
4.27157e-09
4.76012e-07
3.8937e-09
4.72366e-07
3.64619e-09
4.688e-07
3.5665e-09
4.65598e-07
3.20181e-09
4.62624e-07
2.97405e-09
4.59639e-07
2.98459e-09
4.56873e-07
2.76616e-09
4.54556e-07
2.31719e-09
4.52339e-07
2.21654e-09
4.50097e-07
2.24223e-09
4.48119e-07
1.97835e-09
4.46461e-07
1.65739e-09
4.44829e-07
1.63283e-09
4.43297e-07
1.53183e-09
4.41967e-07
1.3294e-09
4.40783e-07
1.18412e-09
4.39648e-07
1.13546e-09
4.38672e-07
9.76007e-10
4.37771e-07
9.0043e-10
4.36967e-07
8.04431e-10
4.36188e-07
7.78933e-10
4.35527e-07
6.61023e-10
4.34788e-07
7.38483e-10
8.98087e-10
4.16611e-06
6.32774e-08
4.16968e-06
9.0741e-08
4.16434e-06
1.0492e-07
4.15456e-06
1.08077e-07
4.14364e-06
1.09121e-07
4.13148e-06
1.1161e-07
4.11709e-06
1.15639e-07
4.09988e-06
1.20287e-07
4.07972e-06
1.25051e-07
4.05652e-06
1.29871e-07
4.03019e-06
1.34772e-07
4.00059e-06
1.39884e-07
3.96752e-06
1.452e-07
3.93087e-06
1.5055e-07
3.89045e-06
1.56153e-07
3.84607e-06
1.61893e-07
3.79761e-06
1.67551e-07
3.74499e-06
1.72964e-07
3.68817e-06
1.78088e-07
3.62713e-06
1.82767e-07
3.56204e-06
1.86414e-07
3.49332e-06
1.88187e-07
3.4219e-06
1.86932e-07
3.34878e-06
1.82342e-07
3.27532e-06
1.73132e-07
3.20335e-06
1.58476e-07
3.13503e-06
1.38479e-07
3.07187e-06
1.1575e-07
3.01478e-06
9.40256e-08
2.9634e-06
7.67487e-08
2.9161e-06
6.50799e-08
2.87149e-06
5.76759e-08
2.82865e-06
5.32469e-08
2.7869e-06
5.07489e-08
2.74605e-06
4.92843e-08
2.70584e-06
4.86971e-08
2.66601e-06
4.87112e-08
2.6264e-06
4.90286e-08
2.58713e-06
4.91739e-08
2.54817e-06
4.92489e-08
2.50954e-06
4.92295e-08
2.47124e-06
4.91427e-08
2.43336e-06
4.88295e-08
2.39607e-06
4.82247e-08
2.35928e-06
4.77361e-08
2.32299e-06
4.7161e-08
2.28734e-06
4.64729e-08
2.25229e-06
4.56984e-08
2.21793e-06
4.47494e-08
2.18434e-06
4.38045e-08
2.15155e-06
4.26874e-08
2.11959e-06
4.15902e-08
2.08843e-06
4.05543e-08
2.05805e-06
3.95089e-08
2.02847e-06
3.8549e-08
1.99964e-06
3.75219e-08
1.97159e-06
3.65101e-08
1.9444e-06
3.53964e-08
1.91802e-06
3.42835e-08
1.89242e-06
3.32484e-08
1.86767e-06
3.21253e-08
1.84358e-06
3.12954e-08
1.82014e-06
3.04657e-08
1.79745e-06
2.94242e-08
1.7754e-06
2.86399e-08
1.75407e-06
2.76651e-08
1.73348e-06
2.66507e-08
1.71356e-06
2.57696e-08
1.69429e-06
2.49284e-08
1.67559e-06
2.41773e-08
1.65758e-06
2.32109e-08
1.64033e-06
2.22473e-08
1.62378e-06
2.13931e-08
1.60795e-06
2.02922e-08
1.59266e-06
1.96099e-08
1.57798e-06
1.8958e-08
1.56414e-06
1.77364e-08
1.55104e-06
1.67412e-08
1.53856e-06
1.60478e-08
1.52685e-06
1.49086e-08
1.51576e-06
1.40642e-08
1.50525e-06
1.34994e-08
1.49548e-06
1.25339e-08
1.48653e-06
1.12646e-08
1.47805e-06
1.07009e-08
1.47008e-06
1.02114e-08
1.46279e-06
9.26574e-09
1.4562e-06
8.24768e-09
1.44998e-06
7.85235e-09
1.44431e-06
7.20832e-09
1.4391e-06
6.5304e-09
1.43444e-06
5.84992e-09
1.43006e-06
5.50966e-09
1.42623e-06
4.81138e-09
1.42262e-06
4.50985e-09
1.41949e-06
3.93708e-09
1.41648e-06
3.78542e-09
1.41394e-06
3.20321e-09
1.4114e-06
3.27748e-09
3.5028e-09
4.49836e-06
6.1236e-08
4.50403e-06
8.50673e-08
4.50744e-06
1.01509e-07
4.50703e-06
1.08484e-07
4.50555e-06
1.10605e-07
4.50483e-06
1.12333e-07
4.50469e-06
1.15777e-07
4.50447e-06
1.20501e-07
4.50372e-06
1.25803e-07
4.50226e-06
1.3133e-07
4.50001e-06
1.3702e-07
4.49692e-06
1.42977e-07
4.49284e-06
1.49284e-07
4.48764e-06
1.55746e-07
4.48122e-06
1.62578e-07
4.47337e-06
1.69738e-07
4.464e-06
1.76923e-07
4.45291e-06
1.84056e-07
4.44003e-06
1.90964e-07
4.42521e-06
1.97591e-07
4.40836e-06
2.03262e-07
4.38945e-06
2.07095e-07
4.36845e-06
2.07933e-07
4.34561e-06
2.05181e-07
4.32095e-06
1.9779e-07
4.29479e-06
1.84638e-07
4.2676e-06
1.65667e-07
4.24013e-06
1.43217e-07
4.21332e-06
1.20836e-07
4.18786e-06
1.02214e-07
4.16342e-06
8.95209e-08
4.13935e-06
8.17463e-08
4.11522e-06
7.73774e-08
4.09075e-06
7.52114e-08
4.06585e-06
7.4193e-08
4.04046e-06
7.40781e-08
4.01456e-06
7.46149e-08
3.98802e-06
7.55687e-08
3.96086e-06
7.63307e-08
3.93312e-06
7.69941e-08
3.90472e-06
7.76241e-08
3.8757e-06
7.81632e-08
3.84611e-06
7.84249e-08
3.81598e-06
7.83536e-08
3.78536e-06
7.83537e-08
3.75422e-06
7.83053e-08
3.72262e-06
7.80698e-08
3.69068e-06
7.76436e-08
3.65834e-06
7.70862e-08
3.62577e-06
7.63782e-08
3.59299e-06
7.54603e-08
3.56e-06
7.45817e-08
3.52694e-06
7.36185e-08
3.49374e-06
7.27063e-08
3.4605e-06
7.17925e-08
3.42726e-06
7.07542e-08
3.394e-06
6.97748e-08
3.36087e-06
6.85257e-08
3.32787e-06
6.7287e-08
3.29505e-06
6.60669e-08
3.2625e-06
6.46725e-08
3.2301e-06
6.36943e-08
3.19798e-06
6.25883e-08
3.16619e-06
6.12075e-08
3.13464e-06
6.01902e-08
3.10356e-06
5.87464e-08
3.07299e-06
5.72235e-08
3.04279e-06
5.59662e-08
3.01312e-06
5.46021e-08
2.98403e-06
5.32675e-08
2.9554e-06
5.18459e-08
2.92748e-06
5.01661e-08
2.90042e-06
4.84471e-08
2.87401e-06
4.66998e-08
2.8482e-06
4.54257e-08
2.82329e-06
4.38704e-08
2.79922e-06
4.18019e-08
2.776e-06
3.99595e-08
2.7538e-06
3.82455e-08
2.73265e-06
3.60657e-08
2.71216e-06
3.45552e-08
2.69263e-06
3.3029e-08
2.6743e-06
3.08647e-08
2.65705e-06
2.8512e-08
2.64046e-06
2.72943e-08
2.62491e-06
2.57613e-08
2.61038e-06
2.37876e-08
2.59689e-06
2.17392e-08
2.58408e-06
2.06632e-08
2.57233e-06
1.89601e-08
2.56128e-06
1.75768e-08
2.55123e-06
1.59066e-08
2.54172e-06
1.50167e-08
2.53322e-06
1.33093e-08
2.52513e-06
1.26049e-08
2.51799e-06
1.1077e-08
2.51114e-06
1.06365e-08
2.5052e-06
9.14016e-09
2.4994e-06
9.07545e-09
8.80365e-09
4.85885e-06
6.06425e-08
4.86312e-06
8.08024e-08
4.8675e-06
9.71288e-08
4.86886e-06
1.0712e-07
4.86827e-06
1.11192e-07
4.86806e-06
1.12545e-07
4.86857e-06
1.15264e-07
4.8698e-06
1.19274e-07
4.87126e-06
1.2435e-07
4.87261e-06
1.29971e-07
4.87381e-06
1.35827e-07
4.87489e-06
1.41897e-07
4.87586e-06
1.48307e-07
4.8767e-06
1.54911e-07
4.87743e-06
1.61849e-07
4.87798e-06
1.69188e-07
4.87836e-06
1.76539e-07
4.87851e-06
1.83913e-07
4.87845e-06
1.91024e-07
4.87816e-06
1.9788e-07
4.87761e-06
2.03809e-07
4.87672e-06
2.07978e-07
4.8753e-06
2.09362e-07
4.87318e-06
2.07296e-07
4.87012e-06
2.00849e-07
4.86574e-06
1.89019e-07
4.85972e-06
1.7169e-07
4.85222e-06
1.50721e-07
4.8438e-06
1.29256e-07
4.83527e-06
1.10744e-07
4.827e-06
9.77827e-08
4.81875e-06
8.99974e-08
4.81033e-06
8.5802e-08
4.80158e-06
8.39561e-08
4.7924e-06
8.33718e-08
4.78287e-06
8.36132e-08
4.77301e-06
8.44716e-08
4.76279e-06
8.57943e-08
4.75213e-06
8.69844e-08
4.74105e-06
8.80798e-08
4.72947e-06
8.91993e-08
4.71735e-06
9.02901e-08
4.70468e-06
9.10911e-08
4.6914e-06
9.16382e-08
4.67752e-06
9.22284e-08
4.66303e-06
9.27984e-08
4.64787e-06
9.32249e-08
4.63217e-06
9.33416e-08
4.61583e-06
9.34339e-08
4.59891e-06
9.32994e-08
4.58146e-06
9.29089e-08
4.56338e-06
9.26586e-08
4.54482e-06
9.21795e-08
4.52566e-06
9.18632e-08
4.50595e-06
9.15031e-08
4.48573e-06
9.09784e-08
4.46492e-06
9.05856e-08
4.4437e-06
8.97454e-08
4.42202e-06
8.89681e-08
4.39991e-06
8.81739e-08
4.37741e-06
8.71681e-08
4.35442e-06
8.66894e-08
4.33105e-06
8.59529e-08
4.30732e-06
8.49407e-08
4.28321e-06
8.42983e-08
4.25887e-06
8.30896e-08
4.2343e-06
8.17893e-08
4.20953e-06
8.07351e-08
4.18451e-06
7.96276e-08
4.15941e-06
7.83705e-08
4.13419e-06
7.70659e-08
4.10888e-06
7.54677e-08
4.08376e-06
7.35757e-08
4.05876e-06
7.16927e-08
4.03365e-06
7.05426e-08
4.00887e-06
6.86415e-08
3.98442e-06
6.6252e-08
3.96023e-06
6.41544e-08
3.93644e-06
6.20343e-08
3.91334e-06
5.91692e-08
3.89047e-06
5.74186e-08
3.86813e-06
5.53699e-08
3.84655e-06
5.2444e-08
3.82586e-06
4.92032e-08
3.80546e-06
4.76978e-08
3.78591e-06
4.53086e-08
3.76716e-06
4.25348e-08
3.74937e-06
3.9536e-08
3.73203e-06
3.80016e-08
3.71582e-06
3.51699e-08
3.70019e-06
3.32093e-08
3.68565e-06
3.0444e-08
3.67159e-06
2.90768e-08
3.65874e-06
2.61591e-08
3.64625e-06
2.50973e-08
3.63497e-06
2.23516e-08
3.62398e-06
2.16345e-08
3.6142e-06
1.89168e-08
3.60455e-06
1.87205e-08
1.73993e-08
5.24842e-06
6.05046e-08
5.25163e-06
7.75904e-08
5.25547e-06
9.32907e-08
5.25796e-06
1.04636e-07
5.25849e-06
1.1066e-07
5.25831e-06
1.12724e-07
5.25854e-06
1.15035e-07
5.25961e-06
1.18199e-07
5.26125e-06
1.22717e-07
5.26297e-06
1.2825e-07
5.26459e-06
1.34205e-07
5.26618e-06
1.40303e-07
5.26779e-06
1.46696e-07
5.26942e-06
1.53283e-07
5.27114e-06
1.60132e-07
5.27294e-06
1.67386e-07
5.27486e-06
1.74615e-07
5.27694e-06
1.81838e-07
5.2792e-06
1.88757e-07
5.28176e-06
1.95329e-07
5.2846e-06
2.00967e-07
5.28767e-06
2.04903e-07
5.29079e-06
2.06242e-07
5.2938e-06
2.04286e-07
5.29638e-06
1.98269e-07
5.29806e-06
1.87345e-07
5.29834e-06
1.71411e-07
5.29712e-06
1.51936e-07
5.29475e-06
1.31625e-07
5.29196e-06
1.13531e-07
5.28934e-06
1.00405e-07
5.28687e-06
9.24651e-08
5.28448e-06
8.8198e-08
5.28199e-06
8.64437e-08
5.2793e-06
8.60592e-08
5.27651e-06