/*--------------------------------*- C++ -*----------------------------------*\
  =========                 |
  \\      /  F ield         | OpenFOAM: The Open Source CFD Toolbox
   \\    /   O peration     | Website:  https://openfoam.org
    \\  /    A nd           | Version:  10
     \\/     M anipulation  |
\*---------------------------------------------------------------------------*/
FoamFile
{
    format      ascii;
    class       volVectorField;
    location    "1";
    object      U;
}
// * * * * * * * * * * * * * * * * * * * * * * * * * * * * * * * * * * * * * //

dimensions      [0 1 -1 0 0 0 0];

internalField   nonuniform List<vector> 
4800
(
(0.960447 -1.74226e-05 0)
(1.03919 -0.000307229 0)
(0.96352 0.000150292 0)
(1.03555 0.000153077 0)
(0.967841 0.000121284 0)
(1.03214 -0.000235023 0)
(0.971104 1.6389e-05 0)
(1.02894 -0.000485211 0)
(0.973857 0.000146037 0)
(1.0257 -0.000353326 0)
(0.976765 0.000192059 0)
(1.0228 -0.000213107 0)
(0.979561 0.000140921 0)
(1.02003 -0.000333803 0)
(0.981765 -7.31977e-06 0)
(1.01712 -0.000464524 0)
(0.983368 2.16508e-05 0)
(1.01412 -0.000462637 0)
(0.984245 0.000298243 0)
(1.01079 0.000707139 0)
(0.982783 -9.39272e-05 0)
(1.01491 -0.000257621 0)
(0.98628 0.000136845 0)
(1.01155 0.000148202 0)
(0.990362 0.000113326 0)
(1.00874 -0.00025196 0)
(0.992992 2.71528e-05 0)
(1.00648 -0.000521162 0)
(0.9948 0.000163214 0)
(1.00449 -0.000419253 0)
(0.996423 0.00018114 0)
(1.00304 -0.000313702 0)
(0.997722 0.000129529 0)
(1.00187 -0.000433433 0)
(0.998351 -6.06053e-06 0)
(1.00062 -0.000533086 0)
(0.998368 0.000132475 0)
(0.999282 -0.000187136 0)
(0.99793 0.00109153 0)
(0.997748 0.00200731 0)
(0.996035 -3.33479e-06 0)
(1.00278 -0.00033324 0)
(0.997126 0.000187828 0)
(1.00183 6.15266e-05 0)
(0.998746 0.000149964 0)
(1.00122 -0.000253324 0)
(0.999365 2.88298e-05 0)
(1.00083 -0.000420574 0)
(0.999615 6.69853e-05 0)
(1.00045 -0.000264103 0)
(0.999892 2.39474e-05 0)
(1.0003 -0.000118837 0)
(1.00007 -6.0777e-05 0)
(1.00014 -0.00020785 0)
(0.999855 -0.000188897 0)
(0.999666 -0.000204711 0)
(0.999313 4.82461e-05 0)
(0.998985 0.000500495 0)
(0.99857 0.00141021 0)
(0.998049 0.00240539 0)
(0.999523 -2.04157e-05 0)
(1.00026 -0.000345282 0)
(0.99951 0.000191996 0)
(1.00028 8.99624e-05 0)
(1.00026 0.000120439 0)
(1.00035 -0.000234696 0)
(1.00031 -3.87697e-05 0)
(1.00038 -0.00037538 0)
(1.00025 -1.69622e-05 0)
(1.00029 -0.000197737 0)
(1.00034 -5.35611e-05 0)
(1.00031 -0.000100547 0)
(1.00037 -0.000155568 0)
(1.00024 -0.000226896 0)
(1.0001 -0.000239418 0)
(0.999852 -0.000128399 0)
(0.999582 0.000210884 0)
(0.999297 0.000855704 0)
(0.998931 0.00164065 0)
(0.99845 0.00249984 0)
(1.00006 -5.4016e-07 0)
(0.999984 -0.00032434 0)
(0.999844 0.000150025 0)
(1.00017 9.01052e-05 0)
(1.00048 6.03898e-05 0)
(1.00035 -0.000157401 0)
(1.00045 -0.000124731 0)
(1.00042 -0.000258294 0)
(1.00036 -0.000117411 0)
(1.00035 -0.000159142 0)
(1.00044 -0.000154977 0)
(1.0004 -0.000136917 0)
(1.00048 -0.00021372 0)
(1.00035 -0.000210261 0)
(1.00023 -0.00018148 0)
(1.00001 4.74891e-05 0)
(0.999814 0.000617354 0)
(0.999552 0.0012668 0)
(0.999215 0.00190972 0)
(0.998759 0.00266891 0)
(1.00011 -8.25997e-06 0)
(0.999976 -0.000316786 0)
(0.999896 9.81631e-05 0)
(1.00016 0.000140638 0)
(1.0005 -1.17254e-05 0)
(1.00036 -8.33573e-05 0)
(1.00048 -0.00019495 0)
(1.00046 -0.000238124 0)
(1.00039 -0.000156166 0)
(1.00037 -0.000195227 0)
(1.00047 -0.000206739 0)
(1.00042 -0.000141205 0)
(1.00051 -0.000245521 0)
(1.00039 -0.000149433 0)
(1.0003 -6.41408e-05 0)
(1.00015 0.000406096 0)
(0.999987 0.00096902 0)
(0.999721 0.00149054 0)
(0.999415 0.00202271 0)
(0.998992 0.00270372 0)
(1.00011 -1.54605e-06 0)
(0.999987 -0.000289913 0)
(0.999914 4.60156e-05 0)
(1.00016 0.000164375 0)
(1.0005 -6.19102e-05 0)
(1.00036 -7.66455e-05 0)
(1.00048 -0.000169251 0)
(1.00048 -0.000285444 0)
(1.00039 -0.000176407 0)
(1.00038 -0.000226914 0)
(1.00047 -0.000231715 0)
(1.00043 -0.000181181 0)
(1.00052 -0.000218664 0)
(1.00042 -7.07853e-05 0)
(1.00039 0.000291374 0)
(1.00027 0.00073779 0)
(1.00011 0.00117266 0)
(0.999855 0.00160453 0)
(0.999587 0.00210222 0)
(0.999209 0.00273766 0)
(1.00009 -1.43517e-05 0)
(0.999998 -0.000240819 0)
(0.999933 -3.26583e-05 0)
(1.00016 0.000196386 0)
(1.0005 -8.636e-05 0)
(1.00037 -0.000100222 0)
(1.00047 -0.000163296 0)
(1.00049 -0.000305488 0)
(1.0004 -0.000244111 0)
(1.00038 -0.000256107 0)
(1.00048 -0.000279928 0)
(1.00044 -0.000171104 0)
(1.00054 -0.000118955 0)
(1.0005 0.000208867 0)
(1.00048 0.000602762 0)
(1.00037 0.000909769 0)
(1.00021 0.00126261 0)
(0.999985 0.00167935 0)
(0.999753 0.00216795 0)
(0.999422 0.00276141 0)
(1.00009 -3.39236e-06 0)
(1 -0.000224011 0)
(0.999947 -5.5762e-05 0)
(1.00017 0.000136204 0)
(1.00048 -3.65601e-05 0)
(1.00037 -0.000166354 0)
(1.00046 -0.000167336 0)
(1.00049 -0.000325398 0)
(1.0004 -0.000277385 0)
(1.00039 -0.000302771 0)
(1.00049 -0.000273118 0)
(1.00047 -0.000103085 0)
(1.00059 0.000134864 0)
(1.00058 0.000478656 0)
(1.00055 0.000764805 0)
(1.00044 0.000998818 0)
(1.00031 0.00132862 0)
(1.00013 0.00175382 0)
(0.999925 0.00223493 0)
(0.999636 0.00279187 0)
(1.00008 -1.70202e-05 0)
(1.00001 -0.000187194 0)
(0.999963 -7.7136e-05 0)
(1.00018 8.74184e-05 0)
(1.00047 -5.50326e-05 0)
(1.00037 -0.000148098 0)
(1.00045 -0.000234976 0)
(1.0005 -0.000341768 0)
(1.00041 -0.000302649 0)
(1.0004 -0.000307278 0)
(1.00052 -0.000224877 0)
(1.00053 9.98766e-05 0)
(1.00066 0.000381055 0)
(1.00065 0.000630632 0)
(1.0006 0.000860115 0)
(1.00052 0.00108829 0)
(1.00042 0.00141218 0)
(1.00027 0.0018354 0)
(1.0001 0.00230821 0)
(0.999847 0.00283175 0)
(1.00007 -6.90984e-06 0)
(1.00001 -0.000186555 0)
(0.999974 -5.23396e-05 0)
(1.00019 -7.83956e-06 0)
(1.00046 -9.33983e-05 0)
(1.00037 -0.000145082 0)
(1.00044 -0.000246463 0)
(1.0005 -0.000391318 0)
(1.00041 -0.000297802 0)
(1.00042 -0.000251385 0)
(1.00057 -8.13748e-05 0)
(1.0006 0.000278273 0)
(1.00071 0.000518836 0)
(1.0007 0.000700087 0)
(1.00067 0.000925556 0)
(1.00061 0.00117001 0)
(1.00054 0.00149202 0)
(1.00043 0.00190668 0)
(1.00029 0.00237045 0)
(1.00006 0.00286329 0)
(1.00007 -1.44732e-05 0)
(1.00001 -0.000178288 0)
(0.999986 -4.47958e-05 0)
(1.00018 -3.70799e-05 0)
(1.00046 -0.000183983 0)
(1.00036 -0.000168824 0)
(1.00043 -0.00023387 0)
(1.0005 -0.000388551 0)
(1.00044 -0.00030203 0)
(1.00045 -8.94112e-05 0)
(1.00063 0.000129847 0)
(1.00067 0.000412539 0)
(1.00076 0.000590965 0)
(1.00076 0.000753851 0)
(1.00074 0.000989699 0)
(1.0007 0.00125516 0)
(1.00067 0.00157207 0)
(1.00059 0.00197087 0)
(1.00048 0.00241846 0)
(1.00027 0.00288043 0)
(1.00006 -1.57337e-05 0)
(1.00002 -0.000171651 0)
(0.999995 -5.80403e-05 0)
(1.00018 -2.53735e-05 0)
(1.00045 -0.000271572 0)
(1.00037 -0.000246648 0)
(1.00042 -0.000216953 0)
(1.0005 -0.000307079 0)
(1.00048 -0.000235805 0)
(1.00051 4.70746e-05 0)
(1.00069 0.00026984 0)
(1.00072 0.000496887 0)
(1.0008 0.000662394 0)
(1.00082 0.00082914 0)
(1.00082 0.00107055 0)
(1.0008 0.00135623 0)
(1.0008 0.00166848 0)
(1.00076 0.0020471 0)
(1.00067 0.00247036 0)
(1.00048 0.00290128 0)
(1.00006 -1.60386e-05 0)
(1.00002 -0.000178152 0)
(1.00001 -8.60338e-05 0)
(1.00016 -9.21938e-06 0)
(1.00044 -0.000289968 0)
(1.00038 -0.000345669 0)
(1.00043 -0.000233616 0)
(1.00051 -0.000198938 0)
(1.00052 -6.71265e-05 0)
(1.00057 0.000142153 0)
(1.00075 0.000314395 0)
(1.00077 0.000535871 0)
(1.00086 0.000718742 0)
(1.00089 0.000894665 0)
(1.00092 0.00113693 0)
(1.00092 0.0014324 0)
(1.00094 0.00174503 0)
(1.00093 0.00210139 0)
(1.00087 0.00249526 0)
(1.00069 0.00289635 0)
(1.00006 -2.48885e-05 0)
(1.00002 -0.000152097 0)
(1.00003 -0.000148336 0)
(1.00016 -1.83357e-05 0)
(1.00042 -0.000260092 0)
(1.00039 -0.000373278 0)
(1.00046 -0.000289242 0)
(1.00055 -0.000116959 0)
(1.00056 0.000110532 0)
(1.00061 0.000288431 0)
(1.0008 0.000397633 0)
(1.00084 0.000592448 0)
(1.00092 0.000783403 0)
(1.00097 0.000963043 0)
(1.00102 0.00119906 0)
(1.00104 0.00149221 0)
(1.00109 0.00180659 0)
(1.0011 0.002145 0)
(1.00107 0.00251009 0)
(1.00091 0.00288435 0)
(1.00005 -3.0021e-05 0)
(1.00002 -0.000141083 0)
(1.00004 -0.000173696 0)
(1.00016 -8.72804e-05 0)
(1.0004 -0.000218457 0)
(1.00039 -0.000316205 0)
(1.00049 -0.000264007 0)
(1.00061 -0.000101788 0)
(1.00063 0.000197262 0)
(1.00065 0.000412419 0)
(1.00084 0.000506494 0)
(1.0009 0.000662372 0)
(1.00099 0.000854287 0)
(1.00105 0.00104315 0)
(1.00113 0.00127382 0)
(1.00118 0.00156028 0)
(1.00124 0.00187099 0)
(1.00128 0.00219402 0)
(1.00126 0.00252917 0)
(1.00112 0.00287303 0)
(1.00005 -2.96773e-05 0)
(1.00001 -0.000154774 0)
(1.00004 -0.000165279 0)
(1.00016 -0.000159827 0)
(1.00039 -0.000206603 0)
(1.0004 -0.000214105 0)
(1.00052 -0.000154888 0)
(1.00066 -5.81703e-05 0)
(1.0007 0.000185213 0)
(1.00071 0.000452856 0)
(1.00088 0.000586965 0)
(1.00096 0.000732452 0)
(1.00106 0.000920507 0)
(1.00114 0.00111765 0)
(1.00124 0.00133959 0)
(1.00132 0.00161283 0)
(1.0014 0.00191212 0)
(1.00146 0.00222065 0)
(1.00146 0.00253168 0)
(1.00133 0.00284744 0)
(1.00005 -3.05202e-05 0)
(1.00001 -0.000180069 0)
(1.00005 -0.000159446 0)
(1.00017 -0.000164248 0)
(1.00041 -0.000237001 0)
(1.00042 -0.000139143 0)
(1.00054 -2.89283e-05 0)
(1.00071 2.61847e-05 0)
(1.00078 0.000199436 0)
(1.00078 0.000463927 0)
(1.00094 0.000634536 0)
(1.00103 0.000793632 0)
(1.00115 0.000982994 0)
(1.00123 0.0011871 0)
(1.00136 0.00140441 0)
(1.00146 0.00166348 0)
(1.00157 0.00194895 0)
(1.00164 0.00224341 0)
(1.00166 0.00253434 0)
(1.00154 0.00282347 0)
(1.00005 -3.33388e-05 0)
(1.00002 -0.00018919 0)
(1.00007 -0.000178881 0)
(1.00017 -0.000134726 0)
(1.00042 -0.000215499 0)
(1.00047 -0.000114363 0)
(1.00058 6.49443e-05 0)
(1.00075 0.000143228 0)
(1.00085 0.00026733 0)
(1.00086 0.000488685 0)
(1.00102 0.000669096 0)
(1.00111 0.000839883 0)
(1.00124 0.0010346 0)
(1.00134 0.00124604 0)
(1.00148 0.00146136 0)
(1.00161 0.00170775 0)
(1.00174 0.00197678 0)
(1.00183 0.00225616 0)
(1.00186 0.00252827 0)
(1.00175 0.00279273 0)
(1.00004 -3.94284e-05 0)
(1.00002 -0.00018199 0)
(1.00009 -0.000202921 0)
(1.00018 -0.000107999 0)
(1.00044 -0.000148151 0)
(1.00052 -7.9979e-05 0)
(1.00064 0.000104918 0)
(1.00079 0.000229631 0)
(1.00091 0.000338418 0)
(1.00094 0.000530322 0)
(1.0011 0.000706683 0)
(1.0012 0.000880851 0)
(1.00135 0.00107644 0)
(1.00145 0.0012966 0)
(1.00162 0.00151112 0)
(1.00177 0.00174458 0)
(1.00192 0.00199507 0)
(1.00202 0.00225538 0)
(1.00206 0.00251098 0)
(1.00196 0.00275291 0)
(1.00004 -4.33649e-05 0)
(1.00002 -0.000169821 0)
(1.00011 -0.000209133 0)
(1.00021 -0.000104605 0)
(1.00046 -8.00156e-05 0)
(1.00057 -2.28117e-05 0)
(1.0007 0.000140673 0)
(1.00085 0.000275238 0)
(1.00098 0.000397769 0)
(1.00103 0.000574523 0)
(1.00118 0.00074815 0)
(1.00129 0.000919847 0)
(1.00146 0.0011065 0)
(1.00158 0.00132887 0)
(1.00176 0.00154658 0)
(1.00193 0.00176669 0)
(1.0021 0.00200122 0)
(1.00222 0.00224023 0)
(1.00227 0.00248154 0)
(1.00217 0.00270479 0)
(1.00004 -4.26613e-05 0)
(1.00002 -0.000160507 0)
(1.00014 -0.000192881 0)
(1.00024 -9.66442e-05 0)
(1.00049 -3.37137e-05 0)
(1.00061 4.42259e-05 0)
(1.00076 0.000187767 0)
(1.00091 0.000322598 0)
(1.00105 0.000448056 0)
(1.00111 0.000620397 0)
(1.00128 0.000790394 0)
(1.00139 0.000966491 0)
(1.00158 0.00114229 0)
(1.00172 0.0013545 0)
(1.00191 0.00157632 0)
(1.00209 0.00178512 0)
(1.00228 0.00200546 0)
(1.00242 0.00222263 0)
(1.00248 0.00244623 0)
(1.00238 0.00265266 0)
(1.00004 -4.15508e-05 0)
(1.00002 -0.000144449 0)
(1.00016 -0.000165881 0)
(1.00028 -8.01245e-05 0)
(1.00053 -8.08549e-07 0)
(1.00067 9.59985e-05 0)
(1.00082 0.000235862 0)
(1.00098 0.00036822 0)
(1.00113 0.000493721 0)
(1.0012 0.000660785 0)
(1.00138 0.000826003 0)
(1.0015 0.00100558 0)
(1.0017 0.00117839 0)
(1.00187 0.00137152 0)
(1.00206 0.00159002 0)
(1.00226 0.00179126 0)
(1.00246 0.00199903 0)
(1.00261 0.00219713 0)
(1.00268 0.00240033 0)
(1.00259 0.0025909 0)
(1.00004 -3.80373e-05 0)
(1.00002 -0.000123319 0)
(1.00019 -0.000135518 0)
(1.00032 -5.30552e-05 0)
(1.00058 3.02271e-05 0)
(1.00073 0.000132341 0)
(1.00089 0.000274518 0)
(1.00105 0.000408073 0)
(1.00121 0.000533317 0)
(1.0013 0.000696716 0)
(1.00148 0.000858049 0)
(1.00162 0.00103236 0)
(1.00183 0.00120844 0)
(1.00202 0.00138631 0)
(1.00223 0.00159232 0)
(1.00243 0.00178624 0)
(1.00264 0.00198181 0)
(1.00281 0.0021649 0)
(1.00289 0.00234693 0)
(1.0028 0.00252197 0)
(1.00004 -3.23858e-05 0)
(1.00003 -9.95355e-05 0)
(1.00021 -0.000101304 0)
(1.00036 -2.32514e-05 0)
(1.00063 6.30158e-05 0)
(1.00079 0.00016642 0)
(1.00096 0.000307593 0)
(1.00112 0.000444411 0)
(1.0013 0.000567858 0)
(1.0014 0.000725894 0)
(1.00159 0.0008876 0)
(1.00174 0.00105251 0)
(1.00196 0.00122741 0)
(1.00217 0.00139835 0)
(1.00239 0.00158782 0)
(1.0026 0.00177207 0)
(1.00283 0.00195325 0)
(1.00299 0.00212463 0)
(1.00309 0.00228702 0)
(1.003 0.00244663 0)
(1.00004 -2.58926e-05 0)
(1.00003 -7.2795e-05 0)
(1.00024 -6.53322e-05 0)
(1.0004 8.02448e-06 0)
(1.00067 9.58529e-05 0)
(1.00085 0.000199259 0)
(1.00103 0.000335357 0)
(1.00119 0.000473724 0)
(1.00138 0.000599554 0)
(1.0015 0.000747521 0)
(1.0017 0.00090746 0)
(1.00186 0.00106991 0)
(1.00209 0.00123523 0)
(1.00231 0.00140056 0)
(1.00255 0.00157527 0)
(1.00278 0.00174738 0)
(1.00301 0.00191433 0)
(1.00318 0.00207263 0)
(1.00328 0.00222014 0)
(1.00319 0.00236259 0)
(1.00004 -1.81361e-05 0)
(1.00004 -4.56354e-05 0)
(1.00026 -2.83176e-05 0)
(1.00044 4.18926e-05 0)
(1.00072 0.00012777 0)
(1.00091 0.000229242 0)
(1.00111 0.000359805 0)
(1.00127 0.000494526 0)
(1.00146 0.000624565 0)
(1.0016 0.00076839 0)
(1.00181 0.000916338 0)
(1.00198 0.00107923 0)
(1.00222 0.00123704 0)
(1.00246 0.00138863 0)
(1.00271 0.00155271 0)
(1.00294 0.00170915 0)
(1.00318 0.00186498 0)
(1.00335 0.00200779 0)
(1.00346 0.00214364 0)
(1.00338 0.00227 0)
(1.00004 -9.66386e-06 0)
(1.00004 -1.81645e-05 0)
(1.00028 7.97857e-06 0)
(1.00047 7.60708e-05 0)
(1.00076 0.000159892 0)
(1.00096 0.000256732 0)
(1.00118 0.000382241 0)
(1.00135 0.000513003 0)
(1.00155 0.000638565 0)
(1.00169 0.000783747 0)
(1.00192 0.000921065 0)
(1.00211 0.00107162 0)
(1.00235 0.00123088 0)
(1.0026 0.00136687 0)
(1.00287 0.00152 0)
(1.00311 0.00166265 0)
(1.00335 0.00180531 0)
(1.00352 0.0019367 0)
(1.00363 0.00205769 0)
(1.00356 0.00217308 0)
(1.00004 -1.15951e-06 0)
(1.00005 7.85488e-06 0)
(1.0003 4.27996e-05 0)
(1.0005 0.000109421 0)
(1.0008 0.000191137 0)
(1.00102 0.000282425 0)
(1.00124 0.000399027 0)
(1.00142 0.000527245 0)
(1.00164 0.000646806 0)
(1.00179 0.000784773 0)
(1.00203 0.000922733 0)
(1.00223 0.00105483 0)
(1.00248 0.00120886 0)
(1.00273 0.00133983 0)
(1.00301 0.00147422 0)
(1.00326 0.0016079 0)
(1.00351 0.00173243 0)
(1.00368 0.00185588 0)
(1.00379 0.0019617 0)
(1.00372 0.0020672 0)
(1.00004 7.07344e-06 0)
(1.00005 3.19798e-05 0)
(1.00031 7.53189e-05 0)
(1.00053 0.000141053 0)
(1.00083 0.000219534 0)
(1.00106 0.000306267 0)
(1.00131 0.000412513 0)
(1.00149 0.00053326 0)
(1.00172 0.00065139 0)
(1.00188 0.000776256 0)
(1.00213 0.00091024 0)
(1.00234 0.00103499 0)
(1.0026 0.00117006 0)
(1.00286 0.00130081 0)
(1.00315 0.00141851 0)
(1.0034 0.00154067 0)
(1.00366 0.00165189 0)
(1.00384 0.0017621 0)
(1.00395 0.00186007 0)
(1.00387 0.0019515 0)
(1.00004 1.49592e-05 0)
(1.00006 5.42198e-05 0)
(1.00032 0.000105656 0)
(1.00055 0.00017078 0)
(1.00086 0.000245324 0)
(1.0011 0.000326364 0)
(1.00136 0.000423946 0)
(1.00156 0.000533291 0)
(1.00179 0.000646109 0)
(1.00197 0.00076445 0)
(1.00222 0.00088509 0)
(1.00245 0.00100552 0)
(1.00272 0.00112495 0)
(1.00298 0.00124468 0)
(1.00327 0.00135643 0)
(1.00354 0.00146112 0)
(1.00379 0.00156486 0)
(1.00398 0.00165808 0)
(1.00408 0.0017495 0)
(1.00401 0.00182806 0)
(1.00004 2.22588e-05 0)
(1.00006 7.42989e-05 0)
(1.00033 0.000133066 0)
(1.00056 0.000197393 0)
(1.00089 0.000267896 0)
(1.00114 0.000341718 0)
(1.00141 0.000429998 0)
(1.00162 0.000530122 0)
(1.00186 0.000630901 0)
(1.00205 0.000743005 0)
(1.00231 0.000854427 0)
(1.00254 0.000961805 0)
(1.00283 0.00107396 0)
(1.00309 0.00117647 0)
(1.00339 0.00128166 0)
(1.00365 0.00137245 0)
(1.00392 0.00146473 0)
(1.0041 0.00154673 0)
(1.00421 0.00162534 0)
(1.00413 0.00169686 0)
(1.00004 2.87811e-05 0)
(1.00006 9.20833e-05 0)
(1.00034 0.000156691 0)
(1.00057 0.000220045 0)
(1.0009 0.000286149 0)
(1.00116 0.000352445 0)
(1.00145 0.000429384 0)
(1.00166 0.000520459 0)
(1.00192 0.000611379 0)
(1.00212 0.000709459 0)
(1.00239 0.000814857 0)
(1.00263 0.000908933 0)
(1.00292 0.00101084 0)
(1.00319 0.00110151 0)
(1.00349 0.0011927 0)
(1.00376 0.001275 0)
(1.00402 0.00135263 0)
(1.0042 0.00142653 0)
(1.00432 0.00149155 0)
(1.00424 0.0015549 0)
(1.00004 3.42594e-05 0)
(1.00006 0.000107224 0)
(1.00034 0.000176351 0)
(1.00057 0.000238206 0)
(1.0009 0.000298524 0)
(1.00117 0.000358091 0)
(1.00147 0.000423856 0)
(1.0017 0.000501393 0)
(1.00197 0.0005851 0)
(1.00218 0.00067016 0)
(1.00246 0.000762775 0)
(1.0027 0.000848228 0)
(1.003 0.000936246 0)
(1.00327 0.00101792 0)
(1.00357 0.00109534 0)
(1.00384 0.00116733 0)
(1.00411 0.00123319 0)
(1.00429 0.00129604 0)
(1.0044 0.00135158 0)
(1.00432 0.00140333 0)
(1.00004 3.86866e-05 0)
(1.00006 0.000118554 0)
(1.00033 0.000191469 0)
(1.00057 0.000251478 0)
(1.0009 0.000305249 0)
(1.00117 0.000355802 0)
(1.00148 0.000413264 0)
(1.00173 0.000476451 0)
(1.002 0.000547984 0)
(1.00223 0.000623479 0)
(1.00251 0.000703166 0)
(1.00276 0.000776754 0)
(1.00306 0.000853327 0)
(1.00334 0.000923598 0)
(1.00364 0.000991394 0)
(1.00391 0.00105178 0)
(1.00418 0.00110752 0)
(1.00436 0.00115908 0)
(1.00447 0.0012062 0)
(1.00439 0.00124826 0)
(1.00004 4.13049e-05 0)
(1.00006 0.000125545 0)
(1.00033 0.000199891 0)
(1.00056 0.000258383 0)
(1.00089 0.000307288 0)
(1.00116 0.000348872 0)
(1.00148 0.000394289 0)
(1.00174 0.000447619 0)
(1.00202 0.000505531 0)
(1.00227 0.000564587 0)
(1.00255 0.0006375 0)
(1.00281 0.000697363 0)
(1.00311 0.000760847 0)
(1.00339 0.000821296 0)
(1.00369 0.00087659 0)
(1.00396 0.000930176 0)
(1.00423 0.000973627 0)
(1.00441 0.00101748 0)
(1.00451 0.00105453 0)
(1.00443 0.00108973 0)
(1.00004 4.16469e-05 0)
(1.00006 0.00012501 0)
(1.00032 0.00019935 0)
(1.00054 0.000255121 0)
(1.00087 0.000301294 0)
(1.00114 0.000338624 0)
(1.00147 0.000374459 0)
(1.00173 0.000415597 0)
(1.00203 0.000467011 0)
(1.00228 0.000507602 0)
(1.00258 0.000565997 0)
(1.00283 0.000619599 0)
(1.00315 0.000666128 0)
(1.00342 0.000717656 0)
(1.00373 0.000759798 0)
(1.00399 0.000804479 0)
(1.00425 0.000840166 0)
(1.00444 0.000873209 0)
(1.00454 0.000905182 0)
(1.00446 0.000931432 0)
(1.00004 3.95292e-05 0)
(1.00006 0.000114743 0)
(1.00031 0.00018314 0)
(1.00052 0.000234027 0)
(1.00084 0.000275198 0)
(1.00112 0.000306904 0)
(1.00145 0.000340416 0)
(1.00172 0.000367739 0)
(1.00202 0.000409097 0)
(1.00228 0.000444766 0)
(1.00259 0.000476328 0)
(1.00284 0.000520367 0)
(1.00316 0.000551316 0)
(1.00344 0.000579119 0)
(1.00374 0.00060628 0)
(1.00401 0.000623568 0)
(1.00426 0.000645926 0)
(1.00445 0.000652716 0)
(1.00455 0.000668176 0)
(1.00447 0.000671782 0)
(1.00004 3.80075e-05 0)
(1.00005 0.00010419 0)
(1.0003 0.000172617 0)
(1.0005 0.000222615 0)
(1.00082 0.000268781 0)
(1.00109 0.000301442 0)
(1.00142 0.000342931 0)
(1.0017 0.000373448 0)
(1.00201 0.000414536 0)
(1.00226 0.000461649 0)
(1.00258 0.000497215 0)
(1.00284 0.000537463 0)
(1.00313 0.000579848 0)
(1.00341 0.000600964 0)
(1.0037 0.00062765 0)
(1.00396 0.000631412 0)
(1.0042 0.000639225 0)
(1.00437 0.000624729 0)
(1.00447 0.000608017 0)
(1.00438 0.000577609 0)
(1.00004 1.92807e-05 0)
(1.00006 5.03087e-05 0)
(1.0003 8.78157e-05 0)
(1.0005 0.000113758 0)
(1.00081 0.000141617 0)
(1.00109 0.000160359 0)
(1.00142 0.000186031 0)
(1.00171 0.000205391 0)
(1.00203 0.000230648 0)
(1.00229 0.00025865 0)
(1.0026 0.000286031 0)
(1.00288 0.000308662 0)
(1.00317 0.000339253 0)
(1.00342 0.000355443 0)
(1.0037 0.00037383 0)
(1.00392 0.000378881 0)
(1.00412 0.000381965 0)
(1.00423 0.000373138 0)
(1.00427 0.000357304 0)
(1.00413 0.000333463 0)
(0.984758 0.0021463 0)
(0.960612 0.00329646 0)
(0.936287 0.00364879 0)
(0.911482 0.00363286 0)
(0.886216 0.00356915 0)
(0.860556 0.00354683 0)
(0.834563 0.0035469 0)
(0.808206 0.00353908 0)
(0.781435 0.0035168 0)
(0.754166 0.00348077 0)
(0.726443 0.00343575 0)
(0.698247 0.00338875 0)
(0.669573 0.0033358 0)
(0.640436 0.00327776 0)
(0.61084 0.00322375 0)
(0.580729 0.00316424 0)
(0.550199 0.00309583 0)
(0.519276 0.00301974 0)
(0.488103 0.00293456 0)
(0.456693 0.00283861 0)
(0.425253 0.00271646 0)
(0.394039 0.00255108 0)
(0.36354 0.00233913 0)
(0.334279 0.00206299 0)
(0.307023 0.00166767 0)
(0.282771 0.00116639 0)
(0.262504 0.000574649 0)
(0.246918 5.92216e-05 0)
(0.23585 -0.00028599 0)
(0.228216 -0.000452424 0)
(0.222829 -0.000506634 0)
(0.218912 -0.000483261 0)
(0.215906 -0.000447538 0)
(0.213393 -0.00039902 0)
(0.211163 -0.000342592 0)
(0.208987 -0.000285286 0)
(0.206754 -0.000233543 0)
(0.204387 -0.000187897 0)
(0.201902 -0.000149561 0)
(0.199292 -0.000118421 0)
(0.196603 -9.22253e-05 0)
(0.19383 -7.10898e-05 0)
(0.191025 -5.38686e-05 0)
(0.188194 -3.97393e-05 0)
(0.185379 -2.82929e-05 0)
(0.182555 -1.78623e-05 0)
(0.179762 -9.70523e-06 0)
(0.176987 -4.38324e-06 0)
(0.174277 9.47303e-07 0)
(0.171612 5.39151e-06 0)
(0.169028 8.12291e-06 0)
(0.166498 1.15651e-05 0)
(0.164058 1.40303e-05 0)
(0.161654 1.65592e-05 0)
(0.159332 1.89944e-05 0)
(0.157044 1.9588e-05 0)
(0.154839 2.09923e-05 0)
(0.152683 2.12181e-05 0)
(0.150616 2.06988e-05 0)
(0.148598 2.14301e-05 0)
(0.146677 2.11026e-05 0)
(0.144779 2.1079e-05 0)
(0.14296 2.08479e-05 0)
(0.14117 1.97831e-05 0)
(0.139465 1.97581e-05 0)
(0.137786 1.86298e-05 0)
(0.136202 1.77536e-05 0)
(0.134651 1.71133e-05 0)
(0.133183 1.57642e-05 0)
(0.131729 1.5193e-05 0)
(0.130371 1.44594e-05 0)
(0.129034 1.39924e-05 0)
(0.127789 1.32275e-05 0)
(0.12657 1.0947e-05 0)
(0.125451 1.08616e-05 0)
(0.124323 1.14189e-05 0)
(0.123296 9.55545e-06 0)
(0.122296 8.54848e-06 0)
(0.121393 8.50297e-06 0)
(0.120498 6.84851e-06 0)
(0.119723 6.33044e-06 0)
(0.118927 7.03364e-06 0)
(0.118219 6.02076e-06 0)
(0.117535 3.93928e-06 0)
(0.116977 4.08136e-06 0)
(0.11637 4.81989e-06 0)
(0.115865 3.67151e-06 0)
(0.115358 2.4402e-06 0)
(0.114973 2.81997e-06 0)
(0.114523 2.73297e-06 0)
(0.114204 1.98225e-06 0)
(0.113825 1.73426e-06 0)
(0.113588 1.76397e-06 0)
(0.113247 1.39823e-06 0)
(0.113086 1.20895e-06 0)
(0.112772 1.23358e-06 0)
(0.11268 1.14943e-06 0)
(0.112362 1.10775e-06 0)
(0.112349 1.56615e-06 0)
(0.111926 2.12442e-06 0)
(0.997164 0.0041534 0)
(0.996226 0.00588523 0)
(0.994991 0.00649412 0)
(0.993341 0.00646669 0)
(0.991207 0.00633019 0)
(0.988519 0.0062825 0)
(0.985315 0.00631713 0)
(0.981518 0.00638092 0)
(0.9771 0.00644271 0)
(0.971947 0.00649751 0)
(0.966082 0.00654659 0)
(0.959425 0.0065983 0)
(0.95199 0.00665088 0)
(0.943676 0.00669866 0)
(0.93452 0.0067484 0)
(0.924368 0.00679645 0)
(0.9133 0.00683233 0)
(0.901196 0.00685142 0)
(0.888142 0.0068569 0)
(0.874022 0.00684333 0)
(0.858912 0.00679446 0)
(0.842816 0.00668558 0)
(0.825942 0.00650543 0)
(0.808469 0.00622844 0)
(0.790746 0.0057903 0)
(0.773215 0.00517628 0)
(0.756455 0.00438999 0)
(0.740958 0.00354641 0)
(0.726948 0.00276019 0)
(0.714243 0.00213705 0)
(0.702509 0.00169744 0)
(0.691426 0.00140207 0)
(0.68091 0.00119891 0)
(0.670698 0.00104652 0)
(0.660811 0.000942191 0)
(0.651097 0.000876502 0)
(0.641553 0.000837195 0)
(0.632045 0.000810628 0)
(0.622646 0.000785662 0)
(0.613302 0.000762462 0)
(0.60405 0.00073889 0)
(0.594854 0.000717223 0)
(0.585779 0.000690735 0)
(0.576773 0.000661591 0)
(0.567963 0.000637056 0)
(0.559197 0.000610434 0)
(0.55063 0.00058605 0)
(0.542181 0.00055961 0)
(0.533889 0.000530306 0)
(0.525758 0.000505266 0)
(0.517861 0.000476652 0)
(0.51008 0.000450846 0)
(0.502592 0.000427938 0)
(0.49519 0.00040504 0)
(0.48807 0.000386314 0)
(0.481074 0.000365844 0)
(0.474289 0.000346456 0)
(0.467675 0.000328081 0)
(0.461314 0.000309041 0)
(0.455055 0.000291895 0)
(0.449093 0.000275428 0)
(0.443213 0.000263574 0)
(0.43759 0.000251311 0)
(0.432033 0.000236318 0)
(0.426728 0.000225888 0)
(0.421514 0.000213176 0)
(0.416545 0.000199893 0)
(0.411661 0.000189494 0)
(0.407034 0.000180508 0)
(0.402449 0.000171342 0)
(0.398114 0.000159162 0)
(0.393833 0.000149857 0)
(0.389873 0.000142317 0)
(0.385955 0.000130476 0)
(0.382275 0.000124096 0)
(0.378642 0.000118613 0)
(0.37531 0.000106696 0)
(0.372006 9.88931e-05 0)
(0.369035 9.44468e-05 0)
(0.366085 8.39408e-05 0)
(0.363421 7.68957e-05 0)
(0.360753 7.46485e-05 0)
(0.358439 6.78955e-05 0)
(0.356117 5.73054e-05 0)
(0.354114 5.38338e-05 0)
(0.352048 5.22626e-05 0)
(0.350357 4.55687e-05 0)
(0.348569 3.84532e-05 0)
(0.347171 3.68241e-05 0)
(0.345609 3.3562e-05 0)
(0.344482 2.90087e-05 0)
(0.343108 2.54871e-05 0)
(0.342253 2.38119e-05 0)
(0.341023 2.01798e-05 0)
(0.340426 1.84054e-05 0)
(0.339282 1.59541e-05 0)
(0.338948 1.52049e-05 0)
(0.337825 1.2511e-05 0)
(0.337756 1.35689e-05 0)
(0.336541 1.58647e-05 0)
(0.997459 0.00364492 0)
(0.996922 0.00476396 0)
(0.996621 0.00540456 0)
(0.996498 0.00556144 0)
(0.996483 0.00553109 0)
(0.996477 0.00551866 0)
(0.996506 0.00559029 0)
(0.996484 0.00572551 0)
(0.996413 0.00588651 0)
(0.996169 0.00604967 0)
(0.995817 0.00621081 0)
(0.995239 0.00637345 0)
(0.994517 0.0065414 0)
(0.993496 0.00670207 0)
(0.99227 0.00687006 0)
(0.990665 0.00704283 0)
(0.98879 0.00720638 0)
(0.986499 0.007355 0)
(0.983869 0.00749096 0)
(0.980778 0.00760986 0)
(0.977246 0.00769179 0)
(0.973211 0.00770485 0)
(0.968709 0.0076299 0)
(0.963738 0.00743603 0)
(0.958374 0.00706541 0)
(0.952681 0.00648234 0)
(0.946863 0.00569886 0)
(0.94101 0.00480331 0)
(0.935315 0.00393083 0)
(0.929697 0.00321554 0)
(0.92423 0.00272791 0)
(0.91871 0.00241514 0)
(0.913287 0.00222297 0)
(0.907759 0.00209636 0)
(0.902255 0.00201885 0)
(0.896644 0.00197747 0)
(0.890985 0.00195859 0)
(0.885159 0.0019526 0)
(0.879252 0.00193899 0)
(0.873161 0.00192106 0)
(0.866993 0.00189997 0)
(0.860607 0.00187419 0)
(0.854178 0.00184177 0)
(0.847527 0.00179888 0)
(0.840846 0.00175816 0)
(0.833986 0.00171698 0)
(0.827066 0.00167036 0)
(0.820022 0.00162218 0)
(0.812938 0.00157084 0)
(0.805702 0.00151768 0)
(0.798546 0.00146187 0)
(0.791187 0.0014063 0)
(0.783948 0.00135213 0)
(0.776556 0.00130023 0)
(0.769248 0.00124977 0)
(0.761863 0.00119927 0)
(0.754535 0.00115089 0)
(0.747146 0.00109958 0)
(0.739889 0.0010498 0)
(0.732529 0.00100247 0)
(0.725378 0.000954073 0)
(0.71811 0.000913714 0)
(0.711048 0.000874013 0)
(0.703913 0.000831761 0)
(0.696964 0.000795489 0)
(0.689969 0.00075498 0)
(0.683218 0.00071616 0)
(0.676429 0.00068073 0)
(0.66986 0.000645646 0)
(0.663295 0.000615262 0)
(0.657005 0.000582173 0)
(0.650612 0.000547013 0)
(0.644654 0.000515552 0)
(0.638672 0.000482827 0)
(0.632932 0.000457254 0)
(0.62724 0.000432465 0)
(0.621963 0.000399714 0)
(0.616567 0.000370241 0)
(0.611673 0.000346501 0)
(0.606788 0.000318605 0)
(0.602291 0.000296103 0)
(0.597688 0.000276079 0)
(0.593695 0.000251529 0)
(0.589607 0.000225102 0)
(0.586014 0.000209489 0)
(0.58225 0.000193917 0)
(0.579188 0.000173738 0)
(0.575825 0.000153441 0)
(0.573184 0.000142422 0)
(0.570166 0.00012786 0)
(0.568011 0.000114642 0)
(0.565259 0.000100859 0)
(0.563566 9.29974e-05 0)
(0.561053 7.99723e-05 0)
(0.559818 7.38277e-05 0)
(0.557449 6.30515e-05 0)
(0.556686 5.94456e-05 0)
(0.554388 4.94484e-05 0)
(0.554092 4.88393e-05 0)
(0.551752 4.985e-05 0)
(0.997886 0.00346487 0)
(0.997307 0.00443837 0)
(0.996933 0.00517148 0)
(0.996769 0.00556766 0)
(0.996808 0.00570226 0)
(0.996933 0.00573939 0)
(0.997193 0.00579131 0)
(0.997467 0.00589869 0)
(0.997807 0.0060493 0)
(0.99807 0.0062166 0)
(0.998385 0.00638466 0)
(0.998617 0.00655581 0)
(0.998902 0.00673134 0)
(0.999088 0.00690366 0)
(0.999305 0.00708144 0)
(0.999406 0.00726804 0)
(0.999519 0.00744621 0)
(0.999542 0.00761795 0)
(0.999561 0.00777126 0)
(0.999496 0.00791306 0)
(0.999375 0.00801303 0)
(0.99915 0.00804438 0)
(0.998841 0.00797178 0)
(0.998382 0.00777489 0)
(0.997802 0.00740565 0)
(0.996999 0.00684025 0)
(0.996063 0.00608687 0)
(0.994851 0.00522763 0)
(0.993526 0.00438427 0)
(0.991934 0.00367824 0)
(0.990291 0.00318198 0)
(0.988448 0.00286736 0)
(0.986635 0.00267701 0)
(0.984698 0.00256443 0)
(0.982805 0.00249827 0)
(0.980822 0.00245995 0)
(0.978856 0.00243834 0)
(0.976761 0.00242887 0)
(0.974675 0.00241374 0)
(0.972412 0.00239499 0)
(0.970151 0.00237626 0)
(0.967679 0.00235659 0)
(0.96521 0.00232897 0)
(0.962504 0.00229303 0)
(0.959768 0.0022598 0)
(0.956827 0.00222632 0)
(0.95383 0.00218939 0)
(0.950635 0.00214784 0)
(0.947404 0.00210512 0)
(0.943923 0.00205866 0)
(0.940492 0.00200796 0)
(0.936757 0.0019603 0)
(0.933084 0.0019101 0)
(0.92915 0.00186281 0)
(0.925223 0.00181658 0)
(0.921089 0.00176843 0)
(0.916927 0.00172228 0)
(0.912562 0.0016704 0)
(0.908244 0.00162118 0)
(0.903662 0.00157248 0)
(0.899194 0.00151984 0)
(0.894426 0.00147782 0)
(0.889777 0.00143403 0)
(0.884866 0.00138473 0)
(0.880031 0.00134397 0)
(0.875003 0.00129623 0)
(0.870061 0.00124624 0)
(0.864922 0.00120295 0)
(0.859915 0.00115929 0)
(0.854662 0.00111491 0)
(0.849645 0.00107192 0)
(0.844312 0.0010251 0)
(0.839278 0.000975303 0)
(0.834045 0.000928405 0)
(0.829 0.000891714 0)
(0.823742 0.000847931 0)
(0.818903 0.000798239 0)
(0.813696 0.000754194 0)
(0.808973 0.000711187 0)
(0.803988 0.000661666 0)
(0.799487 0.000625994 0)
(0.794585 0.000589367 0)
(0.790379 0.000543182 0)
(0.785769 0.000496367 0)
(0.781852 0.000468521 0)
(0.77739 0.000434269 0)
(0.773899 0.000396049 0)
(0.769705 0.000358071 0)
(0.766576 0.000334741 0)
(0.762606 0.000302002 0)
(0.759965 0.000276687 0)
(0.756176 0.00024678 0)
(0.754019 0.000229169 0)
(0.750409 0.000200333 0)
(0.748772 0.000186846 0)
(0.74526 0.000161722 0)
(0.744188 0.000152486 0)
(0.740715 0.000129303 0)
(0.740224 0.000124699 0)
(0.73669 0.000115875 0)
(0.99823 0.00347859 0)
(0.997627 0.00435088 0)
(0.997193 0.00506737 0)
(0.996945 0.00554589 0)
(0.99694 0.00576929 0)
(0.997043 0.00584173 0)
(0.997325 0.00586648 0)
(0.997621 0.00592013 0)
(0.998002 0.00603125 0)
(0.9983 0.00618138 0)
(0.998668 0.0063453 0)
(0.998969 0.00651512 0)
(0.999344 0.00669207 0)
(0.999653 0.00686767 0)
(1.00002 0.00704372 0)
(1.00033 0.0072257 0)
(1.00069 0.00740239 0)
(1.00104 0.00757292 0)
(1.00145 0.00772192 0)
(1.00187 0.00785211 0)
(1.00235 0.00794357 0)