/*--------------------------------*- C++ -*----------------------------------*\
  =========                 |
  \\      /  F ield         | OpenFOAM: The Open Source CFD Toolbox
   \\    /   O peration     | Website:  https://openfoam.org
    \\  /    A nd           | Version:  10
     \\/     M anipulation  |
\*---------------------------------------------------------------------------*/
FoamFile
{
    format      ascii;
    class       surfaceScalarField;
    location    "0.2";
    object      phi;
}
// * * * * * * * * * * * * * * * * * * * * * * * * * * * * * * * * * * * * * //

dimensions      [0 3 -1 0 0 0 0];

internalField   nonuniform List<scalar> 
9440
(
3.88156e-06
5.42249e-08
3.8789e-06
-1.06681e-07
3.8838e-06
-6.77018e-08
3.8752e-06
1.71341e-08
3.87125e-06
1.89712e-07
3.8634e-06
1.49042e-07
3.86532e-06
8.71356e-08
3.86561e-06
-8.23104e-08
3.8745e-06
-1.39186e-07
3.87756e-06
-2.11953e-07
3.88189e-06
-1.54362e-07
3.88354e-06
-1.12599e-07
3.88439e-06
-2.50053e-08
3.88289e-06
-5.81299e-09
3.88173e-06
6.13126e-08
3.88061e-06
5.05808e-08
3.87607e-06
7.15192e-08
3.86899e-06
5.29002e-08
3.85672e-06
6.70225e-08
5.50519e-08
3.83907e-06
4.18387e-06
5.62143e-08
4.18621e-06
-1.09024e-07
4.18405e-06
-6.55367e-08
4.18296e-06
1.82268e-08
4.17793e-06
1.94734e-07
4.1789e-06
1.4808e-07
4.17821e-06
8.7822e-08
4.17776e-06
-8.18604e-08
4.17996e-06
-1.41391e-07
4.17755e-06
-2.09534e-07
4.18013e-06
-1.56949e-07
4.17779e-06
-1.10255e-07
4.18235e-06
-2.95616e-08
4.17787e-06
-1.33905e-09
4.18207e-06
5.7111e-08
4.17683e-06
5.58285e-08
4.17691e-06
7.14394e-08
4.16905e-06
6.07586e-08
4.16484e-06
7.12336e-08
6.26995e-08
4.15719e-06
4.51954e-06
5.67349e-08
4.5192e-06
-1.08686e-07
4.51484e-06
-6.11748e-08
4.51361e-06
1.9455e-08
4.51674e-06
1.91604e-07
4.51985e-06
1.44972e-07
4.52415e-06
8.35258e-08
4.51958e-06
-7.72976e-08
4.51863e-06
-1.40436e-07
4.50756e-06
-1.98468e-07
4.5082e-06
-1.57587e-07
4.49985e-06
-1.01905e-07
4.50644e-06
-3.6152e-08
4.49987e-06
5.23111e-09
4.50806e-06
4.89215e-08
4.5024e-06
6.14874e-08
4.50598e-06
6.78641e-08
4.49904e-06
6.76976e-08
4.49967e-06
7.06023e-08
6.79749e-08
4.49439e-06
4.88302e-06
5.46584e-08
4.87968e-06
-1.05343e-07
4.87524e-06
-5.67286e-08
4.87312e-06
2.15693e-08
4.88171e-06
1.83014e-07
4.88574e-06
1.40939e-07
4.89313e-06
7.61355e-08
4.88599e-06
-7.01539e-08
4.88371e-06
-1.38154e-07
4.86842e-06
-1.83176e-07
4.8658e-06
-1.54973e-07
4.85654e-06
-9.26456e-08
4.85916e-06
-3.87694e-08
4.8565e-06
7.89151e-09
4.86019e-06
4.52288e-08
4.85976e-06
6.19155e-08
4.85941e-06
6.82173e-08
4.85751e-06
6.95936e-08
4.85772e-06
7.03975e-08
6.98271e-08
4.85587e-06
5.27374e-06
5.1567e-08
5.26914e-06
-1.00748e-07
5.26501e-06
-5.25952e-08
5.26231e-06
2.42709e-08
5.2733e-06
1.72019e-07
5.2771e-06
1.37141e-07
5.28605e-06
6.71876e-08
5.27751e-06
-6.16095e-08
5.27488e-06
-1.35532e-07
5.25874e-06
-1.67033e-07
5.2534e-06
-1.49637e-07
5.24573e-06
-8.49672e-08
5.24416e-06
-3.72014e-08
5.24434e-06
7.71458e-09
5.24458e-06
4.4984e-08
5.24608e-06
6.04204e-08
5.24593e-06
6.83647e-08
5.24472e-06
7.0803e-08
5.24512e-06
7.00008e-08
6.99763e-08
5.24497e-06
5.69495e-06
4.80717e-08
5.68964e-06
-9.54371e-08
5.68616e-06
-4.91102e-08
5.68274e-06
2.76939e-08
5.69496e-06
1.59798e-07
5.69818e-06
1.33914e-07
5.70757e-06
5.78037e-08
5.69905e-06
-5.30893e-08
5.695e-06
-1.31483e-07
5.68091e-06
-1.52942e-07
5.67172e-06
-1.40454e-07
5.66725e-06
-8.04959e-08
5.66219e-06
-3.21402e-08
5.6632e-06
6.70976e-09
5.66313e-06
4.5054e-08
5.66369e-06
5.98579e-08
5.66444e-06
6.76181e-08
5.66369e-06
7.15499e-08
5.66422e-06
6.94728e-08
6.91602e-08
5.66503e-06
6.1497e-06
4.42387e-08
6.14359e-06
-8.93198e-08
6.14109e-06
-4.66135e-08
6.13679e-06
3.19942e-08
6.14987e-06
1.46713e-07
6.1527e-06
1.31085e-07
6.16161e-06
4.88998e-08
6.15437e-06
-4.58489e-08
6.14783e-06
-1.24941e-07
6.13676e-06
-1.41876e-07
6.12415e-06
-1.27847e-07
6.12104e-06
-7.73874e-08
6.11586e-06
-2.6958e-08
6.11479e-06
7.78449e-09
6.11608e-06
4.37596e-08
6.11579e-06
6.01501e-08
6.11659e-06
6.68214e-08
6.11677e-06
7.13608e-08
6.11719e-06
6.90621e-08
6.771e-08
6.11864e-06
6.64075e-06
4.00497e-08
6.63369e-06
-8.22618e-08
6.63232e-06
-4.52405e-08
6.62729e-06
3.70215e-08
6.6408e-06
1.33207e-07
6.64388e-06
1.28006e-07
6.65124e-06
4.1535e-08
6.64633e-06
-4.09365e-08
6.63671e-06
-1.1532e-07
6.62797e-06
-1.33138e-07
6.61434e-06
-1.14222e-07
6.60958e-06
-7.26209e-08
6.60657e-06
-2.39489e-08
6.60316e-06
1.11984e-08
6.60457e-06
4.23464e-08
6.60505e-06
5.96674e-08
6.60547e-06
6.63992e-08
6.60628e-06
7.05553e-08
6.60671e-06
6.86325e-08
6.60262e-08
6.60839e-06
7.17099e-06
3.54884e-08
7.16289e-06
-7.41619e-08
7.16265e-06
-4.50031e-08
7.15731e-06
4.23616e-08
7.17052e-06
1.20001e-07
7.1747e-06
1.2383e-07
7.17952e-06
3.67146e-08
7.17741e-06
-3.88348e-08
7.16535e-06
-1.03256e-07
7.15706e-06
-1.24844e-07
7.14498e-06
-1.02142e-07
7.1371e-06
-6.47454e-08
7.13559e-06
-2.24343e-08
7.13219e-06
1.45978e-08
7.13189e-06
4.26422e-08
7.13336e-06
5.82028e-08
7.13406e-06
6.56917e-08
7.13499e-06
6.96293e-08
7.13564e-06
6.79854e-08
6.44251e-08
7.13724e-06
7.74354e-06
3.05498e-08
7.73437e-06
-6.4987e-08
7.73509e-06
-4.5729e-08
7.73009e-06
4.73643e-08
7.74212e-06
1.07976e-07
7.74819e-06
1.17758e-07
7.75003e-06
3.48724e-08
7.75014e-06
-3.89421e-08
7.73739e-06
-9.05057e-08
7.72743e-06
-1.14884e-07
7.71793e-06
-9.26473e-08
7.70815e-06
-5.49673e-08
7.70541e-06
-1.96918e-08
7.70414e-06
1.58732e-08
7.70252e-06
4.42618e-08
7.70356e-06
5.7161e-08
7.70523e-06
6.40177e-08
7.70635e-06
6.85119e-08
7.70714e-06
6.71995e-08
6.31622e-08
7.7084e-06
8.36174e-06
2.527e-08
8.3516e-06
-5.48443e-08
8.35288e-06
-4.70073e-08
8.34914e-06
5.1101e-08
8.35902e-06
9.80987e-08
8.36743e-06
1.09341e-07
8.36662e-06
3.56873e-08
8.36732e-06
-3.96465e-08
8.35612e-06
-7.93047e-08
8.34325e-06
-1.02013e-07
8.33546e-06
-8.48594e-08
8.32635e-06
-4.58524e-08
8.3209e-06
-1.424e-08
8.32084e-06
1.59272e-08
8.32008e-06
4.50227e-08
8.31987e-06
5.73774e-08
8.32178e-06
6.21053e-08
8.32361e-06
6.66824e-08
8.32451e-06
6.63005e-08
6.21336e-08
8.32553e-06
9.02918e-06
1.97348e-08
9.01836e-06
-4.40222e-08
9.01952e-06
-4.81678e-08
9.01807e-06
5.25543e-08
9.02503e-06
9.11392e-08
9.03563e-06
9.87417e-08
9.03337e-06
3.79396e-08
9.0327e-06
-3.89705e-08
9.02442e-06
-7.10295e-08
9.00937e-06
-8.6956e-08
9.00098e-06
-7.64766e-08
8.99423e-06
-3.90995e-08
8.9872e-06
-7.21214e-09
8.98581e-06
1.73175e-08
8.98698e-06
4.38525e-08
8.98664e-06
5.77216e-08
8.9877e-06
6.10465e-08
8.99016e-06
6.42153e-08
8.99156e-06
6.49081e-08
6.13149e-08
8.99238e-06
9.74975e-06
1.40909e-08
9.73869e-06
-3.29701e-08
9.73888e-06
-4.83501e-08
9.74059e-06
5.08407e-08
9.74451e-06
8.72208e-08
9.75626e-06
8.69861e-08
9.75432e-06
3.98835e-08
9.75076e-06
-3.54127e-08
9.74518e-06
-6.54462e-08
9.7302e-06
-7.19724e-08
9.71927e-06
-6.55541e-08
9.71442e-06
-3.42459e-08
9.70833e-06
-1.12069e-09
9.70479e-06
2.08592e-08
9.70631e-06
4.23266e-08
9.70727e-06
5.67592e-08
9.70776e-06
6.05587e-08
9.70979e-06
6.21839e-08
9.71186e-06
6.28428e-08
6.03979e-08
9.71278e-06
1.05276e-05
8.55113e-09
1.0517e-05
-2.23038e-08
1.05153e-05
-4.66978e-08
1.05206e-05
4.55828e-08
1.05222e-05
8.56207e-08
1.05333e-05
7.58398e-08
1.05334e-05
3.97704e-08
1.05266e-05
-2.86249e-08
1.05221e-05
-6.09015e-08
1.05095e-05
-5.9398e-08
1.0496e-05
-5.2085e-08
1.04909e-05
-2.91189e-08
1.04873e-05
2.51675e-09
1.04829e-05
2.52865e-08
1.0483e-05
4.21718e-08
1.04851e-05
5.46396e-08
1.0486e-05
5.96597e-08
1.04875e-05
6.07395e-08
1.04896e-05
6.0712e-08
5.90213e-08
1.0491e-05
1.13673e-05
3.38955e-09
1.13578e-05
-1.27569e-08
1.13536e-05
-4.25025e-08
1.13621e-05
3.70367e-08
1.13629e-05
8.48158e-08
1.13715e-05
6.72647e-08
1.13745e-05
3.67645e-08
1.13657e-05
-1.98232e-08
1.13599e-05
-5.50408e-08
1.13506e-05
-5.01238e-08
1.13367e-05
-3.81974e-08
1.13293e-05
-2.16878e-08
1.13274e-05
4.38899e-09
1.13243e-05
2.83934e-08
1.13228e-05
4.36162e-08
1.13246e-05
5.28911e-08
1.13266e-05
5.76459e-08
1.1328e-05
5.93717e-08
1.13297e-05
5.90278e-08
5.73039e-08
1.13314e-05
1.22738e-05
-1.07292e-09
1.22661e-05
-5.1032e-09
1.2259e-05
-3.54011e-08
1.22699e-05
2.61751e-08
1.22718e-05
8.29108e-08
1.22764e-05
6.26913e-08
1.22817e-05
3.14442e-08
1.22732e-05
-1.1359e-08
1.22644e-05
-4.61662e-08
1.22574e-05
-4.31737e-08
1.22457e-05
-2.6508e-08
1.2236e-05
-1.19337e-08
1.22336e-05
6.80546e-09
1.22327e-05
2.92538e-08
1.22312e-05
4.51365e-08
1.22317e-05
5.23714e-08
1.22338e-05
5.55382e-08
1.22359e-05
5.73176e-08
1.22374e-05
5.74924e-08
5.58166e-08
1.22389e-05
1.32524e-05
-4.51618e-09
1.32473e-05
-1.31841e-11
1.32374e-05
-2.55163e-08
1.3249e-05
1.46044e-08
1.32537e-05
7.81701e-08
1.32542e-05
6.22337e-08
1.32597e-05
2.59309e-08
1.32539e-05
-5.61952e-09
1.32423e-05
-3.45384e-08
1.32353e-05
-3.61564e-08
1.32269e-05
-1.81284e-08
1.3217e-05
-1.98884e-09
1.32124e-05
1.13639e-08
1.32126e-05
2.90756e-08
1.32125e-05
4.52211e-08
1.32123e-05
5.25366e-08
1.32137e-05
5.42e-08
1.3216e-05
5.50229e-08
1.32179e-05
5.55184e-08
5.45802e-08
1.32192e-05
1.43089e-05
-6.65648e-09
1.43068e-05
2.06642e-09
1.42948e-05
-1.34737e-08
1.43051e-05
4.28208e-09
1.43137e-05
6.95024e-08
1.43113e-05
6.46695e-08
1.43145e-05
2.27529e-08
1.43125e-05
-3.64606e-09
1.43002e-05
-2.22621e-08
1.42909e-05
-2.67841e-08
1.42851e-05
-1.23376e-08
1.42774e-05
5.7231e-09
1.42711e-05
1.76335e-08
1.42702e-05
2.99402e-08
1.42716e-05
4.38679e-08
1.4272e-05
5.20767e-08
1.42726e-05
5.36835e-08
1.42744e-05
5.31839e-08
1.42767e-05
5.31745e-08
5.30885e-08
1.42782e-05
1.54497e-05
-7.3312e-09
1.54506e-05
1.14655e-09
1.54376e-05
-4.40547e-10
1.54448e-05
-2.91968e-09
1.54573e-05
5.6933e-08
1.54543e-05
6.76752e-08
1.54534e-05
2.37232e-08
1.5454e-05
-4.28117e-09
1.5444e-05
-1.23036e-08
1.54321e-05
-1.48574e-08
1.54263e-05
-6.52852e-09
1.54217e-05
1.02925e-08
1.5416e-05
2.33694e-08
1.54132e-05
3.2681e-08
1.54144e-05
4.27264e-08
1.54161e-05
5.03589e-08
1.5417e-05
5.28336e-08
1.54179e-05
5.22152e-08
1.54199e-05
5.11656e-08
5.11952e-08
1.54218e-05
1.66817e-05
-6.55161e-09
1.66851e-05
-2.23011e-09
1.66726e-05
1.19798e-08
1.66753e-05
-5.57924e-09
1.66907e-05
4.15745e-08
1.66896e-05
6.86922e-08
1.66842e-05
2.91608e-08
1.66848e-05
-4.8586e-09
1.66791e-05
-6.64182e-09
1.66665e-05
-2.23764e-09
1.66586e-05
1.35877e-09
1.6656e-05
1.28701e-08
1.66526e-05
2.67501e-08
1.66491e-05
3.62035e-08
1.66488e-05
4.3039e-08
1.66508e-05
4.8347e-08
1.66526e-05
5.10576e-08
1.66536e-05
5.12617e-08
1.66548e-05
4.98839e-08
4.92289e-08
1.66568e-05
1.80124e-05
-4.53987e-09
1.80172e-05
-7.09044e-09
1.8007e-05
2.22023e-08
1.80048e-05
-3.31362e-09
1.80208e-05
2.55652e-08
1.80236e-05
6.58314e-08
1.80151e-05
3.77106e-08
1.8013e-05
-2.78171e-09
1.80112e-05
-4.84338e-09
1.8001e-05
7.96251e-09
1.79909e-05
1.14495e-08
1.79877e-05
1.60394e-08
1.79869e-05
2.75532e-08
1.79848e-05
3.83453e-08
1.7983e-05
4.4844e-08
1.79839e-05
4.7427e-08
1.79863e-05
4.86514e-08
1.7988e-05
4.95512e-08
1.79892e-05
4.8699e-08
4.7732e-08
1.79907e-05
1.94499e-05
-1.71215e-09
1.94549e-05
-1.21479e-08
1.94482e-05
2.88692e-08
1.94417e-05
3.22248e-09
1.94557e-05
1.15392e-08
1.94632e-05
5.8393e-08
1.9454e-05
4.68868e-08
1.94479e-05
3.31405e-09
1.94479e-05
-4.86673e-09
1.94419e-05
1.39643e-08
1.94314e-05
2.1966e-08
1.94262e-05
2.12568e-08
1.94264e-05
2.7376e-08
1.94264e-05
3.8275e-08
1.94251e-05
4.62151e-08
1.94244e-05
4.80802e-08
1.9426e-05
4.70405e-08
1.94286e-05
4.69655e-08
1.94302e-05
4.7132e-08
4.6105e-08
1.94318e-05
2.10027e-05
1.39945e-09
2.10067e-05
-1.61305e-08
2.10042e-05
3.1317e-08
2.09951e-05
1.23689e-08
2.10047e-05
1.94006e-09
2.10158e-05
4.72424e-08
2.1009e-05
5.36926e-08
2.09992e-05
1.31497e-08
2.09982e-05
-3.859e-09
2.09965e-05
1.56106e-08
2.09882e-05
3.03279e-08
2.0981e-05
2.84538e-08
2.09799e-05
2.84103e-08
2.09818e-05
3.63753e-08
2.09823e-05
4.57698e-08
2.09811e-05
4.92396e-08
2.09814e-05
4.68077e-08
2.09836e-05
4.47386e-08
2.0986e-05
4.47584e-08
4.4272e-08
2.09878e-05
2.26801e-05
4.25925e-09
2.2682e-05
-1.80951e-08
2.26835e-05
2.98254e-08
2.2674e-05
2.191e-08
2.26777e-05
-1.74322e-09
2.26907e-05
3.42331e-08
2.26883e-05
5.6024e-08
2.26764e-05
2.50852e-08
2.26723e-05
2.47679e-10
2.26736e-05
1.43476e-08
2.26691e-05
3.48306e-08
2.26614e-05
3.60804e-08
2.26585e-05
3.13745e-08
2.26603e-05
3.45626e-08
2.26626e-05
4.34982e-08
2.26628e-05
4.89863e-08
2.26619e-05
4.76892e-08
2.26631e-05
4.35876e-08
2.26654e-05
4.24073e-08
4.20138e-08
2.26677e-05
2.44918e-05
6.43151e-09
2.44913e-05
-1.75916e-08
2.44956e-05
2.54617e-08
2.44877e-05
2.98422e-08
2.44859e-05
7.27267e-11
2.44979e-05
2.21987e-08
2.45005e-05
5.34884e-08
2.44894e-05
3.61485e-08
2.44818e-05
7.85343e-09
2.44832e-05
1.28961e-08
2.44827e-05
3.53784e-08
2.4477e-05
4.17926e-08
2.44724e-05
3.59896e-08
2.44726e-05
3.42861e-08
2.44759e-05
4.02495e-08
2.44778e-05
4.70869e-08
2.44776e-05
4.78669e-08
2.44774e-05
4.38006e-08
2.44792e-05
4.05903e-08
3.98663e-08
2.44814e-05
2.64483e-05
7.68988e-09
2.64455e-05
-1.47674e-08
2.64512e-05
1.97502e-08
2.64463e-05
3.47791e-08
2.64407e-05
5.64439e-09
2.64492e-05
1.3672e-08
2.64555e-05
4.71961e-08
2.64478e-05
4.38297e-08
2.64379e-05
1.77333e-08
2.64372e-05
1.3676e-08
2.64396e-05
3.29514e-08
2.64371e-05
4.43243e-08
2.64323e-05
4.07502e-08
2.64309e-05
3.5653e-08
2.64334e-05
3.77894e-08
2.64366e-05
4.38711e-08
2.64379e-05
4.65733e-08
2.64376e-05
4.40903e-08
2.64384e-05
3.98331e-08
3.80371e-08
2.64402e-05
2.8561e-05
8.03338e-09
2.85565e-05
-1.03398e-08
2.8562e-05
1.4317e-08
2.85606e-05
3.6192e-08
2.85533e-05
1.29109e-08
2.85572e-05
9.74094e-09
2.85653e-05
3.91492e-08
2.8562e-05
4.71563e-08
2.85522e-05
2.74977e-08
2.85487e-05
1.71926e-08
2.85516e-05
2.99836e-08
2.85522e-05
4.37763e-08
2.85491e-05
4.38113e-08
2.85466e-05
3.81318e-08
2.85477e-05
3.66981e-08
2.85511e-05
4.04947e-08
2.85537e-05
4.40091e-08
2.85544e-05
4.33313e-08
2.85547e-05
3.95992e-08
3.66462e-08
2.85561e-05
3.08421e-05
7.64842e-09
3.0837e-05
-5.26662e-09
3.0841e-05
1.03547e-08
3.08426e-05
3.45686e-08
3.08357e-05
1.97649e-08
3.08354e-05
1.00132e-08
3.08429e-05
3.17365e-08
3.08436e-05
4.64306e-08
3.08361e-05
3.50343e-08
3.08306e-05
2.26342e-08
3.08323e-05
2.83396e-08
3.0835e-05
4.10485e-08
3.08343e-05
4.4538e-08
3.0832e-05
4.0354e-08
3.0832e-05
3.6745e-08
3.08345e-05
3.801e-08
3.08377e-05
4.07823e-08
3.08396e-05
4.14192e-08
3.08403e-05
3.88778e-08
3.5673e-08
3.08413e-05
3.33049e-05
6.8253e-09
3.33001e-05
-4.49711e-10
3.33021e-05
8.35236e-09
3.33056e-05
3.10572e-08
3.33007e-05
2.47021e-08
3.32975e-05
1.3188e-08
3.33027e-05
2.65334e-08
3.33062e-05
4.29261e-08
3.33019e-05
3.93034e-08
3.32962e-05
2.83537e-08
3.32961e-05
2.84866e-08
3.32993e-05
3.78205e-08
3.33006e-05
4.32007e-08
3.32998e-05
4.11979e-08
3.32992e-05
3.73031e-08
3.33009e-05
3.63817e-08
3.33038e-05
3.78101e-08
3.33066e-05
3.87099e-08
3.33081e-05
3.73299e-08
3.45697e-08
3.33092e-05
3.59641e-05
5.87828e-09
3.59602e-05
3.46179e-09
3.59604e-05
8.10534e-09
3.59645e-05
2.69653e-08
3.5962e-05
2.72327e-08
3.59577e-05
1.74426e-08
3.59603e-05
2.39312e-08
3.59648e-05
3.84166e-08
3.59637e-05
4.04248e-08
3.59593e-05
3.27508e-08
3.5958e-05
2.98375e-08
3.59605e-05
3.52817e-08
3.59631e-05
4.05576e-08
3.59638e-05
4.04952e-08
3.59637e-05
3.74396e-08
3.59648e-05
3.53006e-08
3.59672e-05
3.53695e-08
3.59701e-05
3.58028e-08
3.59724e-05
3.50947e-08
3.30171e-08
3.59739e-05
3.88353e-05
5.01081e-09
3.88326e-05
6.23066e-09
3.88317e-05
8.95652e-09
3.88353e-05
2.33348e-08
3.88349e-05
2.76554e-08
3.88312e-05
2.11874e-08
3.88317e-05
2.33502e-08
3.88358e-05
3.43157e-08
3.88371e-05
3.91708e-08
3.88348e-05
3.50547e-08
3.88332e-05
3.14363e-08
3.88349e-05
3.36105e-08
3.88379e-05
3.7569e-08
3.88398e-05
3.85752e-08
3.88406e-05
3.66324e-08
3.88416e-05
3.43131e-08
3.88437e-05
3.32818e-08
3.88464e-05
3.3084e-08
3.8849e-05
3.25063e-08
3.09879e-08
3.8851e-05
4.19357e-05
4.32751e-09
4.1934e-05
7.9131e-09
4.19328e-05
1.0194e-08
4.19355e-05
2.061e-08
4.19366e-05
2.66151e-08
4.19342e-05
2.35895e-08
4.19337e-05
2.38165e-08
4.19368e-05
3.11783e-08
4.19394e-05
3.65704e-08
4.19392e-05
3.53151e-08
4.19383e-05
3.2352e-08
4.19394e-05
3.24428e-08
4.19422e-05
3.47886e-08
4.19449e-05
3.59243e-08
4.19466e-05
3.48857e-08
4.1948e-05
3.29239e-08
4.19499e-05
3.13954e-08
4.19524e-05
3.05619e-08
4.1955e-05
2.98533e-08
2.86424e-08
4.19574e-05
4.52836e-05
3.837e-09
4.52829e-05
8.71167e-09
4.52818e-05
1.12683e-08
4.52837e-05
1.87275e-08
4.52855e-05
2.48104e-08
4.52846e-05
2.44621e-08
4.52841e-05
2.43437e-08
4.52864e-05
2.88794e-08
4.52894e-05
3.35044e-08
4.52908e-05
3.39799e-08
4.5291e-05
3.21116e-08
4.52921e-05
3.13151e-08
4.52947e-05
3.22302e-08
4.52976e-05
3.30021e-08
4.53001e-05
3.24459e-08
4.5302e-05
3.09495e-08
4.5304e-05
2.93893e-08
4.53064e-05
2.81915e-08
4.5309e-05
2.72398e-08
2.61324e-08
4.53115e-05
4.8899e-05
3.4865e-09
4.88988e-05
8.86447e-09
4.88982e-05
1.18634e-08
4.88996e-05
1.734e-08
4.89017e-05
2.27185e-08
4.89021e-05
2.40237e-08
4.89022e-05
2.42727e-08
4.89041e-05
2.69838e-08
4.89072e-05
3.04108e-08
4.89096e-05
3.15903e-08
4.8911e-05
3.06964e-08
4.89125e-05
2.97731e-08
4.8915e-05
2.97584e-08
4.8918e-05
2.99993e-08
4.89209e-05
2.95903e-08
4.89234e-05
2.8457e-08
4.89257e-05
2.70652e-08
4.89281e-05
2.57763e-08
4.89307e-05
2.4659e-08
2.35502e-08
4.89333e-05
5.2803e-05
3.20218e-09
5.28033e-05
8.5613e-09
5.28033e-05
1.18541e-08
5.28046e-05
1.60775e-08
5.28068e-05
2.05203e-08
5.28082e-05
2.26018e-08
5.28091e-05
2.33247e-08
5.28111e-05
2.50307e-08
5.28141e-05
2.73541e-08
5.28172e-05
2.85798e-08
5.28195e-05
2.83178e-08
5.28217e-05
2.75786e-08
5.28243e-05
2.71432e-08
5.28274e-05
2.694e-08
5.28305e-05
2.64863e-08
5.28334e-05
2.55743e-08
5.28361e-05
2.4388e-08
5.28387e-05
2.31689e-08
5.28413e-05
2.20263e-08
2.09265e-08
5.28439e-05
5.70188e-05
2.91332e-09
5.70195e-05
7.9187e-09
5.70201e-05
1.12396e-08
5.70215e-05
1.46519e-08
5.70238e-05
1.81956e-08
5.7026e-05
2.04439e-08
5.70278e-05
2.14918e-08
5.70301e-05
2.26961e-08
5.70333e-05
2.4201e-08
5.70367e-05
2.5191e-08
5.70398e-05
2.52281e-08
5.70426e-05
2.47164e-08
5.70456e-05
2.41704e-08
5.70488e-05
2.37198e-08
5.70521e-05
2.31866e-08
5.70553e-05
2.24081e-08
5.70583e-05
2.14152e-08
5.70611e-05
2.03376e-08
5.70639e-05
1.92688e-08
1.82274e-08
5.70666e-05
6.15713e-05
2.56505e-09
6.15722e-05
6.98694e-09
6.15734e-05
1.00688e-08
6.15751e-05
1.28812e-08
6.15777e-05
1.56473e-08
6.15804e-05
1.76917e-08
6.15831e-05
1.88734e-08
6.1586e-05
1.98088e-08
6.15894e-05
2.07871e-08
6.15931e-05
2.14842e-08
6.15967e-05
2.16104e-08
6.16001e-05
2.12741e-08
6.16035e-05
2.07608e-08
6.1607e-05
2.02284e-08
6.16106e-05
1.96495e-08
6.1614e-05
1.89563e-08
6.16173e-05
1.81437e-08
6.16204e-05
1.72651e-08
6.16233e-05
1.63685e-08
1.54863e-08
6.1626e-05
6.64872e-05
2.13207e-09
6.64885e-05
5.76778e-09
6.64901e-05
8.3911e-09
6.64924e-05
1.06592e-08
6.64952e-05
1.27718e-08
6.64985e-05
1.44502e-08
6.65018e-05
1.55581e-08
6.65053e-05
1.63335e-08
6.65091e-05
1.69781e-08
6.65131e-05
1.74243e-08
6.65172e-05
1.75362e-08
6.65211e-05
1.73276e-08
6.6525e-05
1.69291e-08
6.65288e-05
1.64497e-08
6.65325e-05
1.59168e-08
6.65361e-05
1.53162e-08
6.65396e-05
1.46416e-08
6.6543e-05
1.39146e-08
6.65462e-05
1.3166e-08
1.24155e-08
6.65493e-05
7.17957e-05
1.63603e-09
7.17971e-05
4.30743e-09
7.17992e-05
6.27865e-09
7.18019e-05
7.97969e-09
7.18052e-05
9.51901e-09
7.18088e-05
1.07745e-08
7.18127e-05
1.16649e-08
7.18168e-05
1.22757e-08
7.18211e-05
1.2713e-08
7.18255e-05
1.29846e-08
7.183e-05
1.30508e-08
7.18344e-05
1.2916e-08
7.18387e-05
1.26375e-08
7.18429e-05
1.22766e-08
7.18469e-05
1.18649e-08
7.18508e-05
1.14097e-08
7.18545e-05
1.09126e-08
7.18581e-05
1.0383e-08
7.18614e-05
9.83501e-09
9.28672e-09
7.18645e-05
7.75281e-05
7.75299e-05
7.75325e-05
7.75357e-05
7.75395e-05
7.75437e-05
7.75482e-05
7.75529e-05
7.75578e-05
7.75627e-05
7.75676e-05
7.75725e-05
7.75772e-05
7.75818e-05
7.75862e-05
7.75905e-05
7.75945e-05
7.75984e-05
7.7602e-05
7.76054e-05
3.772e-06
6.70681e-08
3.67845e-06
9.35556e-08
3.58005e-06
9.83957e-08
3.48462e-06
9.54265e-08
3.39006e-06
9.45631e-08
3.29405e-06
9.60056e-08
3.19585e-06
9.82004e-08
3.09451e-06
1.0134e-07
2.98977e-06
1.0474e-07
2.8809e-06
1.08878e-07
2.7675e-06
1.13401e-07
2.65169e-06
1.15805e-07
2.53619e-06
1.15501e-07
2.42211e-06
1.14082e-07
2.30936e-06
1.12744e-07
2.19603e-06
1.13337e-07
2.07925e-06
1.16776e-07
1.95829e-06
1.20961e-07
1.83626e-06
1.22028e-07
1.71712e-06
1.19147e-07
1.60045e-06
1.16665e-07
1.486e-06
1.14446e-07
1.37692e-06
1.09088e-07
1.27576e-06
1.01157e-07
1.18708e-06
8.86783e-08
1.11666e-06
7.04244e-08
1.06472e-06
5.19346e-08
1.02877e-06
3.59505e-08
1.00724e-06
2.15264e-08
9.96958e-07
1.02861e-08
9.94391e-07
2.56708e-09
9.97718e-07
-3.32687e-09
1.00403e-06
-6.31274e-09
1.00962e-06
-5.59431e-09
1.01292e-06
-3.29027e-09
1.01279e-06
1.23829e-10
1.00863e-06
4.15982e-09
1.00328e-06
5.34738e-09
1.00096e-06
2.32474e-09
1.00171e-06
-7.52999e-10
1.00249e-06
-7.80021e-10
1.00208e-06
4.12175e-10
1.00165e-06
4.33168e-10
1.00201e-06
-3.62351e-10
1.0028e-06
-7.85893e-10
1.00359e-06
-7.96208e-10
1.00444e-06
-8.46819e-10
1.00544e-06
-9.96895e-10
1.00648e-06
-1.0441e-09
1.00743e-06
-9.52255e-10
1.00822e-06
-7.86805e-10
1.00883e-06
-6.07051e-10
1.00926e-06
-4.38738e-10
1.00956e-06
-2.97488e-10
1.00975e-06
-1.92814e-10
1.00988e-06
-1.22383e-10
1.00996e-06
-7.84093e-11
1.01001e-06
-5.22784e-11
1.01004e-06
-3.74883e-11
1.01007e-06
-2.91055e-11
1.0101e-06
-2.43061e-11
1.01012e-06
-2.09297e-11
1.01014e-06
-1.86891e-11
1.01015e-06
-1.62557e-11
1.01017e-06
-1.49171e-11
1.01018e-06
-1.232e-11
1.01019e-06
-1.19095e-11
1.0102e-06
-8.56602e-12
1.01021e-06
-9.92333e-12
1.01022e-06
-4.84901e-12
1.01023e-06
-9.3718e-12
1.01023e-06
-6.86811e-13
1.01024e-06
-1.05522e-11
1.01023e-06
4.47709e-12
1.01025e-06
-1.37031e-11
1.01024e-06
1.06901e-11
1.01025e-06
-1.82308e-11
1.01024e-06
1.6796e-11
1.01026e-06
-2.16968e-11
1.01024e-06
1.92227e-11
1.01026e-06
-1.90765e-11
1.01025e-06
1.20618e-11
1.01025e-06
-4.15994e-12
1.01026e-06
-9.37362e-12
1.01024e-06
2.43405e-11
1.01028e-06
-4.01667e-11
1.01022e-06
5.38471e-11
1.01028e-06
-5.91381e-11
1.01022e-06
5.85546e-11
1.01026e-06
-4.06655e-11
1.01024e-06
2.65609e-11
1.01023e-06
9.23036e-12
1.01023e-06
-1.45151e-12
1.01019e-06
3.84791e-11
1.01014e-06
4.906e-11
1.01012e-06
2.4449e-11
1.00993e-06
1.85558e-10
1.00989e-06
4.10065e-11
1.00963e-06
2.64159e-10
9.28021e-10
4.16229e-06
6.19623e-08
4.1676e-06
8.8251e-08
4.1628e-06
1.03192e-07
4.15451e-06
1.0372e-07
4.14621e-06
1.02867e-07
4.13652e-06
1.05689e-07
4.12443e-06
1.10288e-07
4.10871e-06
1.17065e-07
4.0892e-06
1.24251e-07
4.06576e-06
1.32316e-07
4.03751e-06
1.41648e-07
4.00518e-06
1.48137e-07
3.96955e-06
1.51136e-07
3.93129e-06
1.52334e-07
3.89073e-06
1.53308e-07
3.84714e-06
1.56927e-07
3.79993e-06
1.63984e-07
3.7481e-06
1.72794e-07
3.69245e-06
1.77675e-07
3.63445e-06
1.77148e-07
3.57269e-06
1.78422e-07
3.50753e-06
1.79613e-07
3.44036e-06
1.76258e-07
3.37141e-06
1.70105e-07
3.30447e-06
1.55621e-07
3.24315e-06
1.31739e-07
3.18778e-06
1.07304e-07
3.13951e-06
8.42251e-08
3.0987e-06
6.23377e-08
3.06337e-06
4.56113e-08
3.03326e-06
3.26834e-08
3.00872e-06
2.12131e-08
2.98753e-06
1.4873e-08
2.96803e-06
1.39015e-08
2.9502e-06
1.4543e-08
2.93262e-06
1.77044e-08
2.91377e-06
2.30122e-08
2.89566e-06
2.34554e-08
2.88121e-06
1.67718e-08
2.87027e-06
1.01893e-08
2.86096e-06
8.53319e-09
2.85275e-06
8.61836e-09
2.84626e-06
6.92067e-09
2.84163e-06
4.27234e-09
2.8385e-06
2.33857e-09
2.83684e-06
8.67126e-10
2.83686e-06
-8.69912e-10
2.8386e-06
-2.7373e-09
2.84168e-06
-4.1162e-09
2.84548e-06
-4.75563e-09
2.8494e-06
-4.70685e-09
2.85296e-06
-4.16302e-09
2.85587e-06
-3.34943e-09
2.85805e-06
-2.48223e-09
2.85957e-06
-1.71505e-09
2.86057e-06
-1.11718e-09
2.86118e-06
-6.94651e-10
2.86155e-06
-4.18852e-10
2.86176e-06
-2.51012e-10
2.86189e-06
-1.54355e-10
2.86197e-06
-1.01052e-10
2.86202e-06
-7.15952e-11
2.86205e-06
-5.53231e-11
2.86208e-06
-4.46388e-11
2.86211e-06
-3.82782e-11
2.86212e-06
-3.15368e-11
2.86214e-06
-2.84977e-11
2.86215e-06
-2.18727e-11
2.86217e-06
-2.20227e-11
2.86218e-06
-1.35931e-11
2.86218e-06
-1.8614e-11
2.86219e-06
-5.57156e-12
2.8622e-06
-1.83988e-11
2.8622e-06
3.25865e-12
2.86221e-06
-2.16135e-11
2.8622e-06
1.32605e-11
2.86221e-06
-2.74681e-11
2.86221e-06
2.32503e-11
2.86222e-06
-3.27939e-11
2.86221e-06
2.87475e-11
2.86222e-06
-3.08754e-11
2.86221e-06
2.17386e-11
2.86222e-06
-1.24768e-11
2.86222e-06
-5.91351e-12
2.86221e-06
2.77873e-11
2.86223e-06
-5.32804e-11
2.8622e-06
8.10905e-11
2.86224e-06
-1.00362e-10
2.86218e-06
1.18547e-10
2.86225e-06
-1.08674e-10
2.86217e-06
1.06217e-10
2.86223e-06
-4.95431e-11
2.86216e-06
6.01486e-11
2.86217e-06
3.45169e-11
2.86211e-06
1.10403e-10
2.86208e-06
5.18446e-11
2.86192e-06
3.4819e-10
2.86183e-06
1.30485e-10
2.8617e-06
3.93625e-10
1.67055e-09
4.49513e-06
6.12253e-08
4.50242e-06
8.09606e-08
4.50629e-06
9.93252e-08
4.50642e-06
1.03593e-07
4.50631e-06
1.02967e-07
4.50692e-06
1.05088e-07
4.50789e-06
1.09311e-07
4.50861e-06
1.16351e-07
4.50862e-06
1.24239e-07
4.50792e-06
1.3302e-07
4.50591e-06
1.43652e-07
4.50255e-06
1.51495e-07
4.49771e-06
1.55978e-07
4.49137e-06
1.58674e-07
4.48382e-06
1.60864e-07
4.47494e-06
1.65807e-07
4.46533e-06
1.73591e-07
4.45508e-06
1.83042e-07
4.44349e-06
1.89268e-07
4.43054e-06
1.90099e-07
4.41576e-06
1.93202e-07
4.39896e-06
1.96414e-07
4.38035e-06
1.94863e-07
4.35932e-06
1.9114e-07
4.33652e-06
1.78418e-07
4.3134e-06
1.54861e-07
4.29065e-06
1.30049e-07
4.26966e-06
1.05219e-07
4.25112e-06
8.08758e-08
4.23393e-06
6.28053e-08
4.21783e-06
4.87761e-08
4.20342e-06
3.56259e-08
4.19009e-06
2.82064e-08
4.1773e-06
2.66842e-08
4.16544e-06
2.64056e-08
4.15396e-06
2.91853e-08
4.14195e-06
3.50277e-08
4.13016e-06
3.52383e-08
4.11997e-06
2.6962e-08
4.11131e-06
1.88501e-08
4.10341e-06
1.64393e-08
4.09621e-06
1.58171e-08
4.0901e-06
1.30245e-08
4.08515e-06
9.22279e-09
4.08121e-06
6.27929e-09
4.07833e-06
3.75089e-09
4.07667e-06
7.8689e-10
4.07628e-06
-2.34142e-09
4.07698e-06
-4.81653e-09
4.07855e-06
-6.33114e-09
4.08078e-06
-6.93799e-09
4.08346e-06
-6.83825e-09
4.08635e-06
-6.24135e-09
4.08921e-06
-5.34759e-09
4.09183e-06
-4.32622e-09
4.09402e-06
-3.30674e-09
4.09571e-06
-2.38613e-09
4.09691e-06
-1.62559e-09
4.09771e-06
-1.04909e-09
4.0982e-06
-6.46163e-10
4.09849e-06
-3.85387e-10
4.09864e-06
-2.27368e-10
4.09873e-06
-1.37325e-10
4.09877e-06
-8.71086e-11
4.09879e-06
-6.04254e-11
4.0988e-06
-4.36463e-11
4.09881e-06
-3.52275e-11
4.09881e-06
-2.60586e-11
4.09882e-06
-2.40921e-11
4.09882e-06
-1.51537e-11
4.09882e-06
-1.85248e-11
4.09882e-06
-6.12843e-12
4.09882e-06
-1.68714e-11
4.09882e-06
2.83652e-12
4.09881e-06
-1.89377e-11
4.09881e-06
1.23928e-11
4.09881e-06
-2.38531e-11
4.09881e-06
2.17953e-11
4.09881e-06
-2.87315e-11
4.09881e-06
2.72271e-11
4.09881e-06
-2.7382e-11
4.09881e-06
2.11055e-11
4.0988e-06
-1.00982e-11
4.0988e-06
-6.4555e-12
4.0988e-06
3.25086e-11
4.09881e-06
-6.08146e-11
4.09879e-06
9.96943e-11
4.09882e-06
-1.2865e-10
4.09877e-06
1.6389e-10
4.09882e-06
-1.60605e-10
4.09876e-06
1.67163e-10
4.0988e-06
-9.12899e-11
4.09877e-06
9.83639e-11
4.09876e-06
4.37832e-11
4.09873e-06
1.35063e-10
4.09869e-06
9.56882e-11
4.09862e-06
4.18387e-10
4.0985e-06
2.45311e-10
4.09848e-06
4.1413e-10
1.93677e-09
4.85515e-06
6.19416e-08
4.86048e-06
7.56291e-08
4.86572e-06
9.40857e-08
4.86747e-06
1.01844e-07
4.86765e-06
1.02789e-07
4.86811e-06
1.04626e-07
4.86897e-06
1.08456e-07
4.87049e-06
1.14829e-07
4.8724e-06
1.22332e-07
4.87456e-06
1.30857e-07
4.87665e-06
1.41563e-07
4.87844e-06
1.49702e-07
4.87981e-06
1.54614e-07
4.88057e-06
1.5791e-07
4.88082e-06
1.6061e-07
4.88069e-06
1.65942e-07
4.88072e-06
1.73561e-07
4.88151e-06
1.82246e-07
4.88245e-06
1.88334e-07
4.88292e-06
1.89629e-07
4.88325e-06
1.92864e-07
4.88344e-06
1.96228e-07
4.88319e-06
1.95109e-07
4.88204e-06
1.92296e-07
4.87928e-06
1.81175e-07
4.87471e-06
1.59429e-07
4.86887e-06
1.35891e-07
4.86281e-06
1.11278e-07
4.85716e-06
8.65237e-08
4.85163e-06
6.83381e-08
4.84591e-06
5.44958e-08
4.84022e-06
4.13197e-08
4.83469e-06
3.37322e-08
4.82942e-06
3.19528e-08
4.82468e-06
3.11454e-08
4.82046e-06
3.34039e-08
4.81643e-06
3.90587e-08
4.81248e-06
3.91886e-08
4.80875e-06
3.06977e-08
4.80525e-06
2.23501e-08
4.80195e-06
1.97392e-08
4.79894e-06
1.88272e-08
4.79631e-06
1.56507e-08
4.79405e-06
1.14819e-08
4.79214e-06
8.19636e-09
4.79061e-06
5.27843e-09
4.78953e-06
1.86672e-09
4.78889e-06
-1.70122e-09
4.78865e-06
-4.58289e-09
4.78879e-06
-6.46454e-09
4.78927e-06
-7.41716e-09
4.79007e-06
-7.64338e-09
4.79116e-06
-7.32598e-09
4.79243e-06
-6.61993e-09
4.79376e-06
-5.65844e-09
4.79502e-06
-4.56557e-09
4.7961e-06
-3.46671e-09
4.79695e-06
-2.47295e-09
4.79756e-06
-1.65896e-09
4.79796e-06
-1.05035e-09
4.79821e-06
-6.32146e-10
4.79835e-06
-3.65434e-10
4.79842e-06
-2.06637e-10
4.79845e-06
-1.16454e-10
4.79845e-06
-6.79915e-11
4.79845e-06
-4.05193e-11
4.79844e-06
-2.68159e-11
4.79843e-06
-1.61414e-11
4.79842e-06
-1.30203e-11
4.79841e-06
-5.30674e-12
4.7984e-06
-7.75674e-12
4.79839e-06
1.85665e-12
4.79838e-06
-6.62347e-12
4.79838e-06
8.18777e-12
4.79837e-06
-8.62046e-12
4.79836e-06
1.4423e-11
4.79835e-06
-1.25616e-11
4.79835e-06
1.98873e-11
4.79834e-06
-1.56463e-11
4.79835e-06
2.11961e-11
4.79833e-06
-1.23416e-11
4.79834e-06
1.16483e-11
4.79833e-06
6.2141e-12
4.79834e-06
-1.81195e-11
4.79832e-06
4.96195e-11
4.79833e-06
-7.46226e-11
4.79831e-06
1.1918e-10
4.79833e-06
-1.46297e-10
4.79831e-06
1.87477e-10
4.79833e-06
-1.79682e-10
4.79831e-06
1.89008e-10
4.79831e-06
-9.82264e-11
4.7983e-06
1.08223e-10
4.79829e-06
6.13683e-11
4.79828e-06
1.42833e-10
4.79823e-06
1.40345e-10
4.79822e-06
4.32831e-10
4.79811e-06
3.57962e-10
4.79814e-06
3.84022e-10
1.93392e-09
5.24421e-06
6.27019e-08
5.24803e-06
7.17997e-08
5.25317e-06
8.89463e-08
5.25599e-06
9.90321e-08
5.25694e-06
1.01838e-07
5.25729e-06
1.04272e-07
5.2576e-06
1.08148e-07
5.25863e-06
1.13798e-07
5.26046e-06
1.205e-07
5.26288e-06
1.28433e-07
5.26554e-06
1.38912e-07
5.26811e-06
1.47131e-07
5.27054e-06
1.52179e-07
5.27264e-06
1.55809e-07
5.27433e-06
1.5892e-07
5.27586e-06
1.64415e-07
5.27769e-06
1.71731e-07
5.28038e-06
1.79558e-07
5.28358e-06
1.85138e-07
5.28647e-06
1.86737e-07
5.28951e-06
1.89823e-07
5.29312e-06
1.9262e-07
5.29689e-06
1.91333e-07
5.3005e-06
1.88687e-07
5.30319e-06
1.78492e-07
5.30413e-06
1.58485e-07
5.30348e-06
1.36545e-07
5.30199e-06
1.12766e-07
5.30028e-06
8.82279e-08
5.29842e-06
7.01987e-08
5.29614e-06
5.67757e-08
5.2935e-06