/*--------------------------------*- C++ -*----------------------------------*\
  =========                 |
  \\      /  F ield         | OpenFOAM: The Open Source CFD Toolbox
   \\    /   O peration     | Website:  https://openfoam.org
    \\  /    A nd           | Version:  10
     \\/     M anipulation  |
\*---------------------------------------------------------------------------*/
FoamFile
{
    format      ascii;
    class       volVectorField;
    location    "0.2";
    object      U;
}
// * * * * * * * * * * * * * * * * * * * * * * * * * * * * * * * * * * * * * //

dimensions      [0 1 -1 0 0 0 0];

internalField   nonuniform List<vector> 
4800
(
(0.959963 0.000596408 0)
(1.03918 -0.00119519 0)
(0.964357 -0.000748261 0)
(1.03665 0.000114413 0)
(0.965987 0.00261955 0)
(1.02806 0.00216834 0)
(0.966843 0.00148757 0)
(1.0253 -0.0014899 0)
(0.971989 -0.00257965 0)
(1.02493 -0.00449919 0)
(0.97642 -0.00351851 0)
(1.02392 -0.00283094 0)
(0.980965 -0.000672907 0)
(1.02132 -0.000212748 0)
(0.98184 0.00197844 0)
(1.01739 0.00177122 0)
(0.982897 0.00261645 0)
(1.01378 0.00196203 0)
(0.983488 0.00256192 0)
(1.01038 0.00194114 0)
(0.982509 0.000520717 0)
(1.01495 -0.00117841 0)
(0.986196 -0.000832523 0)
(1.01183 0.000270935 0)
(0.98851 0.0027543 0)
(1.00589 0.00233433 0)
(0.990982 0.00147666 0)
(1.00451 -0.00157495 0)
(0.993573 -0.00280856 0)
(1.00259 -0.00470774 0)
(0.993844 -0.0036232 0)
(1.00141 -0.00297756 0)
(0.996219 -0.000665867 0)
(1.00072 -0.000180215 0)
(0.996386 0.00212112 0)
(0.999457 0.00188752 0)
(0.996956 0.00284595 0)
(0.998438 0.00230575 0)
(0.996988 0.00323473 0)
(0.997153 0.00297728 0)
(0.996127 0.00058891 0)
(1.0031 -0.00119026 0)
(0.996533 -0.000746829 0)
(1.00089 0.000242664 0)
(0.997163 0.00272203 0)
(1.00008 0.00226087 0)
(0.999538 0.00142464 0)
(1.00175 -0.00141109 0)
(0.999833 -0.00280636 0)
(0.99863 -0.0043418 0)
(0.996306 -0.00372945 0)
(0.99638 -0.00266246 0)
(0.996284 -0.000987178 0)
(0.996221 0.000151181 0)
(0.995922 0.00164462 0)
(0.996602 0.0021622 0)
(0.996928 0.00261711 0)
(0.997264 0.0027501 0)
(0.997357 0.00319243 0)
(0.997293 0.00350795 0)
(0.999822 0.000562927 0)
(1.0007 -0.0011988 0)
(0.998655 -0.000692399 0)
(0.998781 0.000242443 0)
(0.998833 0.00268492 0)
(1.0001 0.00217969 0)
(1.00167 0.00137048 0)
(1.00267 -0.00136779 0)
(1.00135 -0.00276023 0)
(0.998794 -0.00412925 0)
(0.996481 -0.00371171 0)
(0.995545 -0.002459 0)
(0.995418 -0.00107595 0)
(0.995006 0.000226116 0)
(0.994926 0.00155334 0)
(0.995684 0.00219509 0)
(0.996368 0.00263085 0)
(0.996907 0.00290825 0)
(0.997273 0.00330268 0)
(0.9973 0.00357067 0)
(1.0004 0.000528012 0)
(1.00044 -0.00110918 0)
(0.998916 -0.00065271 0)
(0.998599 0.000307877 0)
(0.99913 0.00249658 0)
(1.00034 0.00213159 0)
(1.00207 0.00118629 0)
(1.00297 -0.00118682 0)
(1.00166 -0.00273412 0)
(0.99899 -0.00371318 0)
(0.996621 -0.00359752 0)
(0.995516 -0.00223267 0)
(0.995261 -0.00106845 0)
(0.994779 0.000226214 0)
(0.994649 0.0014896 0)
(0.995409 0.0021626 0)
(0.99618 0.0026312 0)
(0.996786 0.0029918 0)
(0.997219 0.00324374 0)
(0.99727 0.0035615 0)
(1.00045 0.000506886 0)
(1.00041 -0.00107976 0)
(0.998976 -0.000602911 0)
(0.998679 0.000328549 0)
(0.999229 0.0023408 0)
(1.00036 0.002086 0)
(1.00203 0.00103793 0)
(1.00288 -0.00100928 0)
(1.00162 -0.00268145 0)
(0.999007 -0.00341251 0)
(0.996747 -0.00342769 0)
(0.995674 -0.00210676 0)
(0.995373 -0.000961945 0)
(0.9949 0.000171805 0)
(0.994734 0.00145723 0)
(0.995435 0.00217141 0)
(0.996199 0.00265003 0)
(0.9968 0.00300523 0)
(0.997256 0.00321549 0)
(0.997301 0.00355496 0)
(1.00044 0.000462794 0)
(1.00038 -0.00101817 0)
(0.999035 -0.000560003 0)
(0.998791 0.000385945 0)
(0.999301 0.00216038 0)
(1.0003 0.00203599 0)
(1.00189 0.000875603 0)
(1.00271 -0.000871223 0)
(1.00151 -0.0025686 0)
(0.998996 -0.00315689 0)
(0.996857 -0.00311773 0)
(0.995872 -0.00203758 0)
(0.99557 -0.000792829 0)
(0.995112 0.00022741 0)
(0.994924 0.00141723 0)
(0.995557 0.00214578 0)
(0.996292 0.0026311 0)
(0.996873 0.00303045 0)
(0.997332 0.00321357 0)
(0.997367 0.00347942 0)
(1.00043 0.000424585 0)
(1.00036 -0.000940275 0)
(0.999097 -0.000544519 0)
(0.998905 0.000447949 0)
(0.999372 0.00196107 0)
(1.00024 0.00199666 0)
(1.00175 0.000742775 0)
(1.00253 -0.000754579 0)
(1.00138 -0.0023701 0)
(0.998979 -0.00297592 0)
(0.996956 -0.00280471 0)
(0.996078 -0.00194019 0)
(0.995791 -0.000703065 0)
(0.995337 0.000311914 0)
(0.995141 0.00138904 0)
(0.995722 0.00210122 0)
(0.996433 0.00260139 0)
(0.996976 0.00304528 0)
(0.997409 0.00320228 0)
(0.997452 0.00339559 0)
(1.00041 0.000380675 0)
(1.00033 -0.000860777 0)
(0.999163 -0.000536872 0)
(0.999021 0.000524908 0)
(0.999446 0.00177247 0)
(1.00018 0.0019532 0)
(1.00159 0.00063108 0)
(1.00235 -0.000722251 0)
(1.00125 -0.0021434 0)
(0.998976 -0.0028194 0)
(0.997067 -0.00249657 0)
(0.996278 -0.00174819 0)
(0.996034 -0.000656708 0)
(0.995584 0.000416559 0)
(0.995362 0.00143598 0)
(0.995894 0.00207602 0)
(0.996584 0.00255002 0)
(0.997085 0.00299875 0)
(0.997484 0.00317411 0)
(0.997549 0.00330581 0)
(1.0004 0.000332199 0)
(1.00031 -0.000763126 0)
(0.999234 -0.000539252 0)
(0.999133 0.000594313 0)
(0.999519 0.00158339 0)
(1.00012 0.00186557 0)
(1.00144 0.000586225 0)
(1.00219 -0.000719016 0)
(1.00112 -0.00186894 0)
(0.998973 -0.0026026 0)
(0.997189 -0.00227939 0)
(0.99647 -0.00150513 0)
(0.996279 -0.000607804 0)
(0.995851 0.000432056 0)
(0.99559 0.00146299 0)
(0.996067 0.00207196 0)
(0.996749 0.00248959 0)
(0.997219 0.0029364 0)
(0.997565 0.00315313 0)
(0.997646 0.00321605 0)
(1.00038 0.000281974 0)
(1.00028 -0.000657744 0)
(0.999307 -0.000557596 0)
(0.999247 0.000655881 0)
(0.999591 0.00143485 0)
(1.00007 0.00175201 0)
(1.00128 0.000590241 0)
(1.00203 -0.000744145 0)
(1.001 -0.00164653 0)
(0.998962 -0.00233123 0)
(0.997326 -0.00211132 0)
(0.996671 -0.00125465 0)
(0.996517 -0.000478991 0)
(0.996137 0.000436261 0)
(0.995844 0.00146562 0)
(0.996243 0.00210014 0)
(0.99691 0.00245546 0)
(0.997362 0.00285017 0)
(0.997642 0.00311055 0)
(0.99773 0.00314876 0)
(1.00036 0.000225393 0)
(1.00024 -0.000539106 0)
(0.999383 -0.000571548 0)
(0.99936 0.000695201 0)
(0.999656 0.00131736 0)
(1.00002 0.00159231 0)
(1.00111 0.000617356 0)
(1.00188 -0.000751768 0)
(1.0009 -0.00147131 0)
(0.998948 -0.00200048 0)
(0.997468 -0.0019166 0)
(0.996888 -0.00107215 0)
(0.996745 -0.000285331 0)
(0.996417 0.00048692 0)
(0.996118 0.00140866 0)
(0.996433 0.00207853 0)
(0.997065 0.00243437 0)
(0.997518 0.00276445 0)
(0.997744 0.00305723 0)
(0.997802 0.00313135 0)
(1.00035 0.000169392 0)
(1.00021 -0.000414575 0)
(0.999455 -0.000584276 0)
(0.999475 0.000687284 0)
(0.999713 0.0012514 0)
(0.999976 0.00141263 0)
(1.00095 0.000663565 0)
(1.00173 -0.000696534 0)
(1.00083 -0.00136666 0)
(0.998939 -0.00166816 0)
(0.997598 -0.00167751 0)
(0.997123 -0.000951098 0)
(0.996988 -9.20473e-05 0)
(0.996682 0.000604755 0)
(0.996396 0.00137755 0)
(0.996652 0.00201531 0)
(0.997229 0.00240349 0)
(0.997675 0.00271073 0)
(0.997863 0.00296737 0)
(0.997868 0.00310114 0)
(1.00033 0.000111918 0)
(1.00016 -0.000295044 0)
(0.999522 -0.000576044 0)
(0.999594 0.000636803 0)
(0.999761 0.00122743 0)
(0.999937 0.00122886 0)
(1.00079 0.000677088 0)
(1.00156 -0.000576988 0)
(1.00077 -0.00128422 0)
(0.998952 -0.001381 0)
(0.997712 -0.0013575 0)
(0.997365 -0.000830582 0)
(0.997252 2.68978e-05 0)
(0.99694 0.000743352 0)
(0.996657 0.00140212 0)
(0.996875 0.0019432 0)
(0.997413 0.00232661 0)
(0.997832 0.00263939 0)
(0.997995 0.00287024 0)
(0.997959 0.00304161 0)
(1.00031 5.73486e-05 0)
(1.00012 -0.000181883 0)
(0.999576 -0.000540378 0)
(0.999717 0.000534269 0)
(0.999801 0.00121868 0)
(0.999896 0.00107126 0)
(1.00065 0.000646775 0)
(1.00139 -0.00041461 0)
(1.00072 -0.00117881 0)
(0.998995 -0.00117589 0)
(0.997818 -0.00102153 0)
(0.997585 -0.000664284 0)
(0.997539 7.68363e-05 0)
(0.997214 0.000827825 0)
(0.996904 0.00145796 0)
(0.997091 0.00192346 0)
(0.997604 0.00224063 0)
(0.998003 0.00253636 0)
(0.998141 0.00279072 0)
(0.998072 0.00295549 0)
(1.0003 7.65485e-06 0)
(1.00007 -8.68382e-05 0)
(0.999614 -0.000472082 0)
(0.999842 0.000399362 0)
(0.999839 0.00120777 0)
(0.999843 0.000977275 0)
(1.00053 0.000565004 0)
(1.00123 -0.00025464 0)
(1.00066 -0.00101315 0)
(0.999065 -0.00102703 0)
(0.997935 -0.000724975 0)
(0.997778 -0.000423877 0)
(0.997819 0.000128982 0)
(0.997513 0.000841401 0)
(0.997164 0.00149585 0)
(0.997289 0.00192811 0)
(0.997778 0.00218681 0)
(0.998188 0.00243453 0)
(0.998302 0.00268695 0)
(0.9982 0.00285598 0)
(1.00028 -3.33649e-05 0)
(1.00003 -1.9167e-05 0)
(0.999632 -0.000365795 0)
(0.999964 0.000248066 0)
(0.999883 0.00116005 0)
(0.999774 0.000954254 0)
(1.00041 0.000463614 0)
(1.00108 -0.000125421 0)
(1.0006 -0.000778684 0)
(0.999147 -0.000882344 0)
(0.998078 -0.000507968 0)
(0.997948 -0.000156991 0)
(0.998071 0.000247835 0)
(0.997823 0.000837541 0)
(0.997442 0.00147285 0)
(0.997492 0.00192131 0)
(0.997944 0.00217666 0)
(0.998358 0.00236295 0)
(0.998469 0.00256827 0)
(0.998347 0.00276376 0)
(1.00025 -6.26387e-05 0)
(0.999987 2.12948e-05 0)
(0.999628 -0.000231389 0)
(1.00008 0.000103418 0)
(0.99994 0.0010553 0)
(0.999691 0.00098446 0)
(1.0003 0.000385658 0)
(1.00096 -7.36713e-05 0)
(1.00052 -0.000527423 0)
(0.999217 -0.000691994 0)
(0.998245 -0.000364732 0)
(0.998129 7.19301e-05 0)
(0.998287 0.000436529 0)
(0.998107 0.000872056 0)
(0.997738 0.00141542 0)
(0.997722 0.00187646 0)
(0.998104 0.00215194 0)
(0.998504 0.00232141 0)
(0.998639 0.00248977 0)
(0.998504 0.00267488 0)
(1.00023 -7.63798e-05 0)
(0.999955 2.65476e-05 0)
(0.999604 -8.0492e-05 0)
(1.00016 -9.27265e-06 0)
(1.00002 0.000890307 0)
(0.999604 0.00103835 0)
(1.00016 0.000367774 0)
(1.00087 -7.98778e-05 0)
(1.00047 -0.000308573 0)
(0.999267 -0.000438632 0)
(0.998415 -0.00023534 0)
(0.998331 0.000209205 0)
(0.998487 0.00061245 0)
(0.998348 0.000970238 0)
(0.998016 0.00138306 0)
(0.997968 0.00178729 0)
(0.99829 0.00208866 0)
(0.99866 0.00228656 0)
(0.998795 0.00244081 0)
(0.998648 0.00260043 0)
(1.0002 -7.52091e-05 0)
(0.999934 -8.42483e-07 0)
(0.999567 7.87204e-05 0)
(1.00022 -7.06463e-05 0)
(1.00011 0.000679382 0)
(0.99953 0.00107546 0)
(1 0.000433627 0)
(1.00079 -0.00010137 0)
(1.00045 -0.000164645 0)
(0.999302 -0.000164121 0)
(0.998556 -7.4449e-05 0)
(0.998548 0.000273611 0)
(0.998706 0.000716066 0)
(0.998564 0.00109217 0)
(0.998251 0.00141586 0)
(0.998209 0.00171679 0)
(0.9985 0.00199015 0)
(0.998828 0.00221486 0)
(0.998953 0.00238297 0)
(0.998791 0.00255493 0)
(1.00017 -5.91963e-05 0)
(0.999928 -5.12344e-05 0)
(0.999525 0.000223276 0)
(1.00024 -7.18651e-05 0)
(1.00023 0.000449219 0)
(0.999489 0.00105833 0)
(0.999817 0.000567916 0)
(1.0007 -9.50509e-05 0)
(1.00048 -0.00010794 0)
(0.999349 9.06639e-05 0)
(0.998654 0.00015668 0)
(0.998745 0.000340424 0)
(0.998951 0.000734095 0)
(0.998791 0.00116963 0)
(0.998451 0.00149479 0)
(0.998402 0.00169929 0)
(0.998704 0.00188664 0)
(0.999026 0.00210976 0)
(0.999143 0.00229757 0)
(0.998961 0.0024966 0)
(1.00014 -3.21333e-05 0)
(0.999938 -0.00011092 0)
(0.999491 0.000326095 0)
(1.00021 -8.16423e-06 0)
(1.00034 0.000234101 0)
(0.999499 0.000965721 0)
(0.999624 0.000729753 0)
(1.00057 -1.44079e-05 0)
(1.00054 -0.000106712 0)
(0.999442 0.00026922 0)
(0.998716 0.000427723 0)
(0.998882 0.000465475 0)
(0.999197 0.000723819 0)
(0.999059 0.00115904 0)
(0.998647 0.00155533 0)
(0.998545 0.00174519 0)
(0.998872 0.00183284 0)
(0.999223 0.00199491 0)
(0.999355 0.00218229 0)
(0.999188 0.0023887 0)
(1.00011 -4.37766e-07 0)
(0.999959 -0.000163246 0)
(0.999476 0.000376704 0)
(1.00015 0.000104713 0)
(1.00043 6.85564e-05 0)
(0.999567 0.00080338 0)
(0.999453 0.000874677 0)
(1.00039 0.000146018 0)
(1.0006 -0.000105318 0)
(0.999598 0.000327168 0)
(0.998784 0.000659184 0)
(0.99895 0.000653342 0)
(0.999393 0.000741587 0)
(0.999351 0.00108936 0)
(0.998897 0.00153917 0)
(0.998668 0.00180529 0)
(0.998968 0.0018455 0)
(0.999388 0.00190259 0)
(0.999569 0.00207028 0)
(0.999457 0.00224401 0)
(1.00008 3.09466e-05 0)
(0.999988 -0.000197602 0)
(0.999488 0.000373257 0)
(1.00006 0.000236234 0)
(1.00048 -2.05569e-05 0)
(0.999687 0.000601133 0)
(0.999336 0.000950172 0)
(1.00018 0.000360669 0)
(1.00062 -5.68337e-05 0)
(0.999803 0.000307721 0)
(0.998903 0.000801216 0)
(0.99897 0.000867125 0)
(0.999508 0.000824074 0)
(0.999627 0.00102613 0)
(0.999202 0.00144716 0)
(0.998836 0.00180509 0)
(0.999016 0.00189712 0)
(0.999488 0.00187385 0)
(0.999747 0.00197107 0)
(0.999717 0.00210888 0)
(1.00006 5.70193e-05 0)
(1.00002 -0.000204207 0)
(0.99953 0.000327337 0)
(0.999959 0.000354496 0)
(1.00048 -2.7279e-05 0)
(0.999835 0.000402334 0)
(0.999298 0.00092886 0)
(0.999949 0.000589438 0)
(1.00058 7.15147e-05 0)
(1.00003 0.000268617 0)
(0.999095 0.000830227 0)
(0.998993 0.00104198 0)
(0.999537 0.000962989 0)
(0.999829 0.00101072 0)
(0.999529 0.00132827 0)
(0.999082 0.001724 0)
(0.99908 0.001918 0)
(0.999514 0.00189583 0)
(0.999867 0.00190516 0)
(0.999934 0.00201096 0)
(1.00004 7.47098e-05 0)
(1.00004 -0.000182973 0)
(0.999597 0.000260216 0)
(0.999875 0.000438015 0)
(1.00044 3.32356e-05 0)
(0.999983 0.000247571 0)
(0.999348 0.000831844 0)
(0.999756 0.000765426 0)
(1.00046 0.000265345 0)
(1.00021 0.000261283 0)
(0.999351 0.000778068 0)
(0.99907 0.00113202 0)
(0.999518 0.00110969 0)
(0.999938 0.00105976 0)
(0.999818 0.00124019 0)
(0.99939 0.00159131 0)
(0.999217 0.00186692 0)
(0.999518 0.00191674 0)
(0.999921 0.00188483 0)
(1.00008 0.00194152 0)
(1.00002 8.19045e-05 0)
(1.00006 -0.000138471 0)
(0.999681 0.000190935 0)
(0.999817 0.000473312 0)
(1.00035 0.000137109 0)
(1.0001 0.000158151 0)
(0.999463 0.000697392 0)
(0.99963 0.000851336 0)
(1.0003 0.000475612 0)
(1.00032 0.000323211 0)
(0.999633 0.000706419 0)
(0.999221 0.00112856 0)
(0.999503 0.00121695 0)
(0.999963 0.00114639 0)
(1.00002 0.00120615 0)
(0.999703 0.00146404 0)
(0.999441 0.00175016 0)
(0.999564 0.00189187 0)
(0.999931 0.00187721 0)
(1.00016 0.00189404 0)
(1.00001 8.05588e-05 0)
(1.00006 -8.28236e-05 0)
(0.999767 0.000135374 0)
(0.999794 0.000461499 0)
(1.00025 0.000244922 0)
(1.00018 0.000140567 0)
(0.999619 0.000565094 0)
(0.99959 0.000856849 0)
(1.00013 0.000653181 0)
(1.00034 0.000440513 0)
(0.999884 0.000656242 0)
(0.999436 0.00106032 0)
(0.999538 0.00125238 0)
(0.999946 0.00122534 0)
(1.00014 0.00121763 0)
(0.999965 0.00137398 0)
(0.999709 0.00161479 0)
(0.999688 0.00180386 0)
(0.999946 0.00184847 0)
(1.00021 0.00185242 0)
(0.999999 7.3172e-05 0)
(1.00006 -2.73233e-05 0)
(0.999846 0.000101808 0)
(0.999804 0.00041964 0)
(1.00016 0.000329371 0)
(1.00021 0.000179352 0)
(0.999778 0.000463574 0)
(0.999628 0.000800358 0)
(1.00001 0.000762633 0)
(1.0003 0.000574146 0)
(1.00007 0.000654315 0)
(0.999678 0.000977989 0)
(0.999638 0.00122052 0)
(0.999935 0.00126527 0)
(1.00019 0.00124609 0)
(1.00015 0.00132345 0)
(0.999964 0.00149899 0)
(0.999874 0.00168099 0)
(1.00001 0.00177805 0)
(1.00024 0.00179841 0)
(0.999995 6.31578e-05 0)
(1.00005 2.09544e-05 0)
(0.99991 9.1938e-05 0)
(0.999838 0.00036634 0)
(1.00009 0.00037829 0)
(1.0002 0.000244208 0)
(0.999913 0.000406201 0)
(0.999719 0.000720804 0)
(0.999947 0.000802448 0)
(1.00024 0.000686087 0)
(1.00018 0.000690212 0)
(0.9999 0.000910387 0)
(0.999789 0.00114772 0)
(0.999965 0.00125234 0)
(1.0002 0.00125905 0)
(1.00027 0.00129568 0)
(1.00017 0.00141021 0)
(1.00008 0.00155797 0)
(1.00012 0.00167271 0)
(1.00028 0.00172088 0)
(0.999995 5.33921e-05 0)
(1.00004 5.76614e-05 0)
(0.999957 9.94848e-05 0)
(0.999884 0.000316103 0)
(1.00004 0.000392362 0)
(1.00017 0.000309114 0)
(1.00001 0.00039021 0)
(0.999834 0.000643304 0)
(0.999943 0.000786958 0)
(1.00019 0.000753312 0)
(1.00024 0.000736537 0)
(1.00007 0.000869728 0)
(0.999958 0.00106647 0)
(1.00004 0.00119722 0)
(1.00023 0.0012402 0)
(1.00034 0.0012677 0)
(1.00032 0.00134023 0)
(1.00026 0.00144858 0)
(1.00027 0.00155436 0)
(1.00036 0.00161972 0)
(0.999995 4.55654e-05 0)
(1.00003 8.09749e-05 0)
(0.999988 0.000114471 0)
(0.999931 0.000276452 0)
(1.00002 0.000382373 0)
(1.00014 0.000355828 0)
(1.00008 0.000397864 0)
(0.999946 0.000582164 0)
(0.999984 0.00074064 0)
(1.00016 0.000771904 0)
(1.00026 0.000767287 0)
(1.0002 0.000846163 0)
(1.00011 0.000992648 0)
(1.00014 0.00112001 0)
(1.00027 0.00118831 0)
(1.00039 0.00122356 0)
(1.00043 0.00127413 0)
(1.00041 0.00135038 0)
(1.00041 0.00143584 0)
(1.00046 0.00150305 0)
(0.999997 3.99608e-05 0)
(1.00002 9.2645e-05 0)
(1.00001 0.000129492 0)
(0.999973 0.000249381 0)
(1.00003 0.000359106 0)
(1.00012 0.000377565 0)
(1.00012 0.000410147 0)
(1.00004 0.000539115 0)
(1.00005 0.000683482 0)
(1.00017 0.00075203 0)
(1.00028 0.000771813 0)
(1.00028 0.000824531 0)
(1.00024 0.000928307 0)
(1.00026 0.00103695 0)
(1.00034 0.00111288 0)
(1.00044 0.00115808 0)
(1.0005 0.00120023 0)
(1.00052 0.00125516 0)
(1.00053 0.00131983 0)
(1.00057 0.00137926 0)
(0.999998 3.59917e-05 0)
(1.00001 9.66847e-05 0)
(1.00002 0.00013945 0)
(1.00001 0.0002305 0)
(1.00004 0.000331017 0)
(1.00012 0.000377239 0)
(1.00014 0.000414318 0)
(1.00011 0.000506532 0)
(1.00012 0.000624966 0)
(1.0002 0.000706449 0)
(1.0003 0.00074723 0)
(1.00034 0.000791652 0)
(1.00034 0.000865902 0)
(1.00036 0.000951871 0)
(1.00042 0.00102323 0)
(1.0005 0.00107281 0)
(1.00057 0.0011129 0)
(1.00061 0.00115582 0)
(1.00064 0.00120451 0)
(1.00067 0.00125301 0)
(0.999999 3.30575e-05 0)
(1.00001 9.52285e-05 0)
(1.00003 0.000142441 0)
(1.00003 0.000215067 0)
(1.00006 0.000301513 0)
(1.00012 0.000359865 0)
(1.00016 0.000404121 0)
(1.00017 0.000474975 0)
(1.00018 0.000567895 0)
(1.00024 0.000646647 0)
(1.00032 0.00069826 0)
(1.00039 0.000742048 0)
(1.00042 0.00079817 0)
(1.00044 0.000863985 0)
(1.00049 0.000925059 0)
(1.00056 0.00097325 0)
(1.00062 0.00101201 0)
(1.00067 0.00104847 0)
(1.00071 0.0010864 0)
(1.00075 0.00112464 0)
(0.999999 3.03569e-05 0)
(1.00001 8.9783e-05 0)
(1.00003 0.00013819 0)
(1.00005 0.000198631 0)
(1.00008 0.000270813 0)
(1.00013 0.000330511 0)
(1.00018 0.00037871 0)
(1.00021 0.000437295 0)
(1.00024 0.000509867 0)
(1.00029 0.00057848 0)
(1.00036 0.000631274 0)
(1.00042 0.000674561 0)
(1.00047 0.000720161 0)
(1.00051 0.000770761 0)
(1.00056 0.000820413 0)
(1.00062 0.000863329 0)
(1.00068 0.00089918 0)
(1.00073 0.000931163 0)
(1.00078 0.000961947 0)
(1.00082 0.00099211 0)
(1 2.72818e-05 0)
(1.00001 8.10456e-05 0)
(1.00004 0.00012693 0)
(1.00006 0.000178067 0)
(1.0001 0.000237183 0)
(1.00015 0.000291957 0)
(1.0002 0.000339041 0)
(1.00024 0.00038878 0)
(1.00028 0.000445888 0)
(1.00033 0.000502483 0)
(1.0004 0.000550348 0)
(1.00046 0.00059041 0)
(1.00052 0.000628593 0)
(1.00057 0.000668047 0)
(1.00062 0.000707088 0)
(1.00067 0.000742675 0)
(1.00073 0.000773638 0)
(1.00078 0.000801079 0)
(1.00083 0.000826436 0)
(1.00087 0.00085052 0)
(1 2.36535e-05 0)
(1.00002 6.96678e-05 0)
(1.00004 0.00010975 0)
(1.00008 0.000151689 0)
(1.00012 0.000198127 0)
(1.00016 0.00024348 0)
(1.00022 0.000284219 0)
(1.00027 0.000324482 0)
(1.00032 0.000367785 0)
(1.00037 0.000411307 0)
(1.00043 0.000450207 0)
(1.0005 0.000483602 0)
(1.00055 0.000514055 0)
(1.00061 0.000543856 0)
(1.00066 0.000572995 0)
(1.00072 0.000600207 0)
(1.00077 0.000624524 0)
(1.00082 0.000646131 0)
(1.00087 0.000665679 0)
(1.00092 0.000683787 0)
(1 2.00673e-05 0)
(1.00002 5.921e-05 0)
(1.00005 9.44216e-05 0)
(1.00008 0.000130789 0)
(1.00013 0.000170023 0)
(1.00018 0.00020944 0)
(1.00023 0.000246547 0)
(1.00029 0.000282319 0)
(1.00034 0.000318516 0)
(1.0004 0.000354407 0)
(1.00046 0.000387791 0)
(1.00052 0.000417624 0)
(1.00058 0.000444691 0)
(1.00064 0.000470241 0)
(1.00069 0.000494721 0)
(1.00075 0.000517761 0)
(1.0008 0.000538838 0)
(1.00085 0.000557826 0)
(1.0009 0.000574946 0)
(1.00094 0.000590546 0)
(1 9.20577e-06 0)
(1.00002 2.74974e-05 0)
(1.00005 4.44859e-05 0)
(1.00009 6.23405e-05 0)
(1.00014 8.15981e-05 0)
(1.00019 0.000101289 0)
(1.00025 0.000120311 0)
(1.00031 0.000138647 0)
(1.00037 0.000156718 0)
(1.00043 0.000174425 0)
(1.00049 0.000191133 0)
(1.00055 0.000206428 0)
(1.00062 0.000220419 0)
(1.00067 0.000233495 0)
(1.00073 0.00024587 0)
(1.00079 0.000257526 0)
(1.00084 0.000268325 0)
(1.00089 0.000278209 0)
(1.00094 0.000287208 0)
(1.00098 0.000295425 0)
(0.983764 0.00239692 0)
(0.958926 0.00339026 0)
(0.934922 0.00361358 0)
(0.911191 0.00344491 0)
(0.887155 0.00332363 0)
(0.8622 0.00329846 0)
(0.836888 0.00334119 0)
(0.811139 0.00342889 0)
(0.784956 0.00349789 0)
(0.757726 0.00361404 0)
(0.728832 0.00370806 0)
(0.698866 0.00367794 0)
(0.668891 0.00353134 0)
(0.639452 0.00329094 0)
(0.610365 0.00309841 0)
(0.581202 0.0031224 0)
(0.551426 0.00317036 0)
(0.520771 0.00307282 0)
(0.489271 0.00292248 0)
(0.458042 0.00273505 0)
(0.427606 0.00259895 0)
(0.397575 0.002458 0)
(0.368535 0.00217794 0)
(0.341096 0.00183359 0)
(0.316201 0.00131921 0)
(0.295632 0.000659277 0)
(0.280214 0.000116809 0)
(0.269329 -0.000233297 0)
(0.262186 -0.000483616 0)
(0.258197 -0.00061454 0)
(0.256663 -0.000648589 0)
(0.25687 -0.000681255 0)
(0.258144 -0.000611619 0)
(0.259729 -0.000479396 0)
(0.260936 -0.000343613 0)
(0.261316 -0.000210311 0)
(0.260705 -8.54469e-05 0)
(0.259485 -8.2648e-05 0)
(0.258513 -0.00012047 0)
(0.258287 -0.000126774 0)
(0.25847 -8.82213e-05 0)
(0.258539 -4.65626e-05 0)
(0.258448 -3.5928e-05 0)
(0.258435 -3.57178e-05 0)
(0.258577 -2.54213e-05 0)
(0.258786 -8.99124e-06 0)
(0.259006 5.94317e-06 0)
(0.259248 1.38921e-05 0)
(0.259515 1.52877e-05 0)
(0.259775 1.17542e-05 0)
(0.260001 5.40761e-06 0)
(0.260181 -8.9567e-07 0)
(0.260314 -5.34794e-06 0)
(0.260407 -8.19742e-06 0)
(0.260469 -9.12963e-06 0)
(0.260508 -8.53315e-06 0)
(0.260533 -7.02305e-06 0)
(0.260549 -5.20209e-06 0)
(0.26056 -3.51394e-06 0)
(0.260569 -2.18472e-06 0)
(0.260576 -1.26488e-06 0)
(0.260581 -6.91406e-07 0)
(0.260586 -3.6904e-07 0)
(0.260591 -1.98105e-07 0)
(0.260595 -1.2255e-07 0)
(0.260598 -7.95e-08 0)
(0.260602 -7.12893e-08 0)
(0.260604 -4.47429e-08 0)
(0.260607 -5.74109e-08 0)
(0.260608 -1.88002e-08 0)
(0.260611 -5.65138e-08 0)
(0.260611 1.22709e-08 0)
(0.260615 -6.85029e-08 0)
(0.260612 4.79559e-08 0)
(0.260618 -9.37864e-08 0)
(0.260611 8.86473e-08 0)
(0.260622 -1.29126e-07 0)
(0.26061 1.29866e-07 0)
(0.260626 -1.56339e-07 0)
(0.260606 1.47596e-07 0)
(0.260631 -1.46042e-07 0)
(0.260603 1.04858e-07 0)
(0.260634 -4.02231e-08 0)
(0.260602 -6.36633e-08 0)
(0.260635 1.63724e-07 0)
(0.260603 -2.66202e-07 0)
(0.260631 3.53698e-07 0)
(0.260608 -3.80378e-07 0)
(0.260625 3.62615e-07 0)
(0.260611 -2.28558e-07 0)
(0.260623 8.67879e-08 0)
(0.260605 2.21545e-07 0)
(0.260626 -2.27272e-07 0)
(0.260586 4.2582e-07 0)
(0.260626 1.33596e-07 0)
(0.260547 2.78891e-07 0)
(0.260611 1.02483e-06 0)
(0.26045 1.73303e-08 0)
(0.260598 2.27087e-06 0)
(0.260177 5.45723e-06 0)
(0.996404 0.00389847 0)
(0.994905 0.00571729 0)
(0.993863 0.00643888 0)
(0.992979 0.00634933 0)
(0.991719 0.00617819 0)
(0.989496 0.00616759 0)
(0.986656 0.00621909 0)
(0.983391 0.00632654 0)
(0.979507 0.00644342 0)
(0.974706 0.00657698 0)
(0.968357 0.00675878 0)
(0.960845 0.00685117 0)
(0.952693 0.00678341 0)
(0.943977 0.0066711 0)
(0.934735 0.00657001 0)
(0.924476 0.00650204 0)
(0.913409 0.0066002 0)
(0.901752 0.00684176 0)
(0.888909 0.00691909 0)
(0.875356 0.0067518 0)
(0.860961 0.00658914 0)
(0.845531 0.0064628 0)
(0.829764 0.00621397 0)
(0.81322 0.00585279 0)
(0.796668 0.00522994 0)
(0.781569 0.00435231 0)
(0.767854 0.00346701 0)
(0.755726 0.0026478 0)
(0.745333 0.00190936 0)
(0.7361 0.00130684 0)
(0.728111 0.000849149 0)
(0.721606 0.000488193 0)
(0.71605 0.000263369 0)
(0.711063 0.000190072 0)
(0.706652 0.000195657 0)
(0.702476 0.000243176 0)
(0.698145 0.000377827 0)
(0.693858 0.00040385 0)
(0.690058 0.000254444 0)
(0.686914 9.64463e-05 0)
(0.684377 5.86864e-05 0)
(0.682332 7.6969e-05 0)
(0.680669 6.01563e-05 0)
(0.679352 1.75391e-05 0)
(0.678391 -1.16913e-05 0)
(0.677807 -2.89013e-05 0)
(0.67762 -5.11276e-05 0)
(0.677848 -6.92392e-05 0)
(0.678449 -7.30005e-05 0)
(0.679306 -6.35159e-05 0)
(0.680262 -4.68691e-05 0)
(0.681179 -2.88613e-05 0)
(0.681961 -1.35094e-05 0)
(0.682569 -3.05911e-06 0)
(0.683005 2.82003e-06 0)
(0.683296 5.16256e-06 0)
(0.68348 5.22921e-06 0)
(0.683591 4.16897e-06 0)
(0.683655 2.79778e-06 0)
(0.683693 1.58083e-06 0)
(0.683715 6.88145e-07 0)
(0.683729 1.31701e-07 0)
(0.68374 -1.80249e-07 0)
(0.683747 -3.10643e-07 0)
(0.683753 -3.66917e-07 0)
(0.683758 -3.38469e-07 0)
(0.683763 -3.36875e-07 0)
(0.683765 -2.5379e-07 0)
(0.68377 -2.7633e-07 0)
(0.68377 -1.49578e-07 0)
(0.683776 -2.42942e-07 0)
(0.683771 -3.97629e-08 0)
(0.683782 -2.49705e-07 0)
(0.68377 7.73185e-08 0)
(0.68379 -3.01632e-07 0)
(0.683765 2.09062e-07 0)
(0.683799 -3.79262e-07 0)
(0.683756 3.28702e-07 0)
(0.683813 -4.34039e-07 0)
(0.683743 3.71543e-07 0)
(0.683827 -3.76711e-07 0)
(0.68373 2.3612e-07 0)
(0.683839 -8.93645e-08 0)
(0.683724 -1.46193e-07 0)
(0.683839 3.95532e-07 0)
(0.683731 -6.55341e-07 0)
(0.683824 8.77919e-07 0)
(0.68375 -9.688e-07 0)
(0.683806 9.91601e-07 0)
(0.683758 -7.53001e-07 0)
(0.683809 5.83111e-07 0)
(0.683734 -6.40745e-08 0)
(0.683839 2.26059e-07 0)
(0.683688 3.51263e-07 0)
(0.68386 9.22645e-07 0)
(0.683642 2.71768e-07 0)
(0.683846 2.84665e-06 0)
(0.683554 7.29286e-07 0)
(0.68381 3.17147e-06 0)
(0.683374 1.29483e-05 0)
(0.996811 0.00365022 0)
(0.995886 0.00458223 0)
(0.995663 0.00526165 0)
(0.99616 0.0052324 0)
(0.996674 0.00504887 0)
(0.996885 0.0050549 0)
(0.996936 0.00516196 0)
(0.997199 0.0054337 0)
(0.997626 0.00575515 0)
(0.997806 0.00611276 0)
(0.99736 0.00656464 0)
(0.99654 0.00685194 0)
(0.995643 0.00695048 0)
(0.994566 0.00694339 0)
(0.993155 0.00684429 0)
(0.991092 0.00684953 0)
(0.988735 0.00705592 0)
(0.986689 0.00735889 0)
(0.984475 0.00747267 0)
(0.981728 0.00732882 0)
(0.978496 0.00731087 0)
(0.974907 0.00735088 0)
(0.971029 0.00721985 0)
(0.96649 0.00699325 0)
(0.961591 0.00643362 0)
(0.956687 0.00546414 0)
(0.951768 0.00445789 0)
(0.947233 0.00350202 0)
(0.943042 0.00258439 0)
(0.938898 0.00192565 0)
(0.935074 0.00142153 0)
(0.931648 0.000958462 0)
(0.928353 0.000701735 0)
(0.925317 0.000641446 0)
(0.922625 0.000636288 0)
(0.920015 0.000742072 0)
(0.917451 0.000916335 0)
(0.915075 0.000928048 0)
(0.912782 0.000693701 0)
(0.910514 0.000460421 0)
(0.908506 0.000390081 0)
(0.906892 0.000372038 0)
(0.905529 0.000299087 0)
(0.904304 0.000200013 0)
(0.903274 0.000126953 0)
(0.902509 7.10735e-05 0)
(0.902021 4.37352e-06 0)
(0.901803 -5.91764e-05 0)
(0.901842 -0.00011485 0)
(0.902103 -0.000149692 0)
(0.902536 -0.000161868 0)
(0.903092 -0.000155663 0)
(0.903721 -0.000136573 0)
(0.904372 -0.000109666 0)
(0.90499 -8.14129e-05 0)
(0.905529 -5.69161e-05 0)
(0.905959 -3.77659e-05 0)
(0.906277 -2.39683e-05 0)
(0.906493 -1.47081e-05 0)
(0.90663 -8.8562e-06 0)
(0.90671 -5.34795e-06 0)
(0.906755 -3.31388e-06 0)
(0.906779 -2.16308e-06 0)
(0.906791 -1.48677e-06 0)
(0.906798 -1.09605e-06 0)
(0.906801 -8.16175e-07 0)
(0.906804 -6.68111e-07 0)
(0.906803 -4.96932e-07 0)
(0.906807 -4.58436e-07 0)
(0.906803 -2.93334e-07 0)
(0.906809 -3.51153e-07 0)
(0.9068 -1.31869e-07 0)
(0.906813 -3.14415e-07 0)
(0.906794 2.07402e-08 0)
(0.90682 -3.39158e-07 0)
(0.906784 1.7645e-07 0)
(0.906833 -4.04777e-07 0)
(0.906768 3.21508e-07 0)
(0.90685 -4.6555e-07 0)
(0.906746 3.99141e-07 0)
(0.906872 -4.34342e-07 0)
(0.906724 3.14802e-07 0)
(0.90689 -2.0897e-07 0)
(0.906711 -5.31176e-09 0)
(0.906894 3.03929e-07 0)
(0.906715 -6.61033e-07 0)
(0.906879 1.0821e-06 0)
(0.906737 -1.40463e-06 0)
(0.906855 1.73933e-06 0)
(0.906754 -1.68342e-06 0)
(0.906848 1.70784e-06 0)
(0.906741 -9.74054e-07 0)
(0.906869 1.00102e-06 0)
(0.906707 3.52142e-07 0)
(0.906884 1.30915e-06 0)
(0.906679 7.03035e-07 0)
(0.906863 3.94895e-06 0)
(0.906638 1.82308e-06 0)
(0.906813 3.75185e-06 0)
(0.906531 1.74558e-05 0)
(0.996957 0.00349459 0)
(0.996218 0.00416712 0)
(0.995902 0.00503429 0)
(0.996311 0.00532836 0)
(0.996758 0.00533717 0)
(0.996973 0.00541598 0)
(0.997105 0.00553223 0)
(0.997468 0.00575267 0)
(0.99822 0.00600542 0)
(0.998867 0.00632421 0)
(0.999128 0.00670409 0)
(0.999301 0.0069256 0)
(0.999612 0.00700789 0)
(1.00002 0.00698183 0)
(1.00023 0.00694126 0)
(1.00001 0.00708463 0)
(0.999696 0.00733918 0)
(0.999856 0.00758816 0)
(1.0003 0.00768991 0)
(1.0004 0.00761366 0)
(1.00024 0.00764072 0)
(1.00029 0.00766765 0)
(1.0003 0.00749903 0)
(1.00004 0.0072532 0)
(0.999742 0.00669062 0)
(0.99914 0.00575702 0)
(0.998193 0.00480963 0)
(0.997349 0.00385644 0)
(0.996316 0.00294726 0)
(0.994932 0.00229323 0)
(0.993672 0.00178999 0)
(0.99243 0.00132477 0)
(0.990987 0.00105431 0)
(0.989744 0.000984737 0)
(0.988762 0.000949941 0)
(0.987761 0.00100377 0)
(0.986955 0.00116166 0)
(0.986472 0.0011503 0)
(0.985848 0.000882188 0)
(0.984882 0.000624381 0)
(0.983989 0.000536526 0)
(0.983417 0.000501568 0)
(0.982956 0.000409366 0)
(0.982445 0.000296125 0)
(0.981965 0.00020844 0)
(0.981609 0.000128866 0)
(0.981361 3.97171e-05 0)
(0.98119 -4.51705e-05 0)
(0.981095 -0.000111962 0)
(0.981083 -0.000149362 0)
(0.981147 -0.000162251 0)
(0.98128 -0.000158512 0)
(0.981477 -0.000144209 0)
(0.981726 -0.000123648 0)
(0.982001 -0.000100328 0)
(0.982273 -7.7254e-05 0)
(0.982517 -5.6028e-05 0)
(0.982716 -3.80328e-05 0)
(0.982865 -2.41631e-05 0)
(0.982966 -1.44318e-05 0)
(0.98303 -8.18463e-06 0)
(0.983067 -4.48458e-06 0)
(0.983087 -2.45856e-06 0)
(0.983095 -1.40681e-06 0)
(0.983099 -9.02109e-07 0)
(0.983098 -6.26608e-07 0)
(0.983098 -5.02768e-07 0)
(0.983094 -3.67056e-07 0)
(0.983095 -3.34139e-07 0)
(0.983088 -1.97089e-07 0)
(0.983093 -2.3921e-07 0)
(0.983081 -5.95899e-08 0)
(0.983093 -2.04206e-07 0)
(0.983071 6.38216e-08 0)
(0.983098 -2.21513e-07 0)
(0.983058 1.8269e-07 0)
(0.98311 -2.74818e-07 0)
(0.983038 2.86687e-07 0)
(0.983128 -3.20664e-07 0)
(0.983012 3.29237e-07 0)
(0.983153 -2.80834e-07 0)
(0.982984 2.19308e-07 0)
(0.983176 -3.7506e-08 0)
(0.982963 -1.58333e-07 0)
(0.983187 5.04151e-07 0)
(0.982961 -8.20729e-07 0)
(0.983176 1.3007e-06 0)
(0.982981 -1.61925e-06 0)
(0.983147 2.04183e-06 0)
(0.983008 -1.96086e-06 0)
(0.983126 2.00651e-06 0)
(0.983014 -1.05063e-06 0)
(0.98313 1.0992e-06 0)
(0.982993 5.50841e-07 0)
(0.983141 1.42509e-06 0)
(0.982973 1.1609e-06 0)
(0.98312 4.2324e-06 0)
(0.982957 2.93592e-06 0)
(0.983068 3.72193e-06 0)
(0.982881 1.81699e-05 0)
(0.997008 0.003527 0)
(0.996438 0.00404613 0)
(0.996084 0.00490362 0)
(0.996364 0.00528589 0)
(0.996746 0.00531592 0)
(0.996917 0.00541226 0)