/*--------------------------------*- C++ -*----------------------------------*\
  =========                 |
  \\      /  F ield         | OpenFOAM: The Open Source CFD Toolbox
   \\    /   O peration     | Website:  https://openfoam.org
    \\  /    A nd           | Version:  10
     \\/     M anipulation  |
\*---------------------------------------------------------------------------*/
FoamFile
{
    format      ascii;
    class       volScalarField;
    location    "0.8";
    object      p;
}
// * * * * * * * * * * * * * * * * * * * * * * * * * * * * * * * * * * * * * //

dimensions      [0 2 -2 0 0 0 0];

internalField   nonuniform List<scalar> 
4800
(
-1.77695e-10
5.94508e-05
4.64232e-05
9.22314e-06
-4.56301e-05
-0.00010347
-0.00015287
-0.00024581
-0.000367078
-0.000342141
-0.000333513
-0.00033596
-0.000298379
-0.000207756
-5.4101e-05
0.000168896
0.000463972
0.000894795
0.00148226
0.0021125
1.08128e-05
5.50459e-05
4.79987e-05
5.79632e-06
-4.1638e-05
-0.000108078
-0.000147448
-0.000247743
-0.000349161
-0.000342278
-0.000321754
-0.000336257
-0.000294102
-0.000210211
-5.27144e-05
0.000158566
0.000446354
0.000823606
0.00127664
0.00177922
1.27952e-05
5.23303e-05
4.8983e-05
4.75256e-06
-3.97727e-05
-0.000109248
-0.000144849
-0.000247085
-0.000343401
-0.000338952
-0.000319725
-0.000333535
-0.000293433
-0.000209031
-6.04017e-05
0.000141385
0.000387729
0.000698394
0.00107782
0.00152351
2.37493e-05
4.84782e-05
4.99021e-05
2.92483e-06
-3.84041e-05
-0.00010913
-0.000144343
-0.000242737
-0.000339812
-0.000331363
-0.000317354
-0.00032816
-0.000291276
-0.00020807
-7.37901e-05
0.000110058
0.000308688
0.000546909
0.000890245
0.00131035
2.86576e-05
4.52894e-05
4.97694e-05
2.44825e-06
-3.78364e-05
-0.00010715
-0.000145456
-0.000235696
-0.000334491
-0.000325836
-0.000310185
-0.00032237
-0.000290169
-0.000212783
-0.000100688
4.29905e-05
0.000187608
0.00040034
0.000719343
0.00111251
3.74445e-05
4.31748e-05
4.86443e-05
3.88713e-06
-3.95997e-05
-0.000103156
-0.000148353
-0.00022866
-0.000323742
-0.000320265
-0.000302257
-0.000315764
-0.000294093
-0.000228238
-0.000150269
-5.9473e-05
7.11173e-05
0.00026763
0.000559585
0.000920067
4.45069e-05
4.254e-05
4.5905e-05
5.93411e-06
-4.16587e-05
-9.92906e-05
-0.000146859
-0.000227781
-0.000311306
-0.000311547
-0.000296016
-0.000311956
-0.000306053
-0.000266904
-0.000235913
-0.000159001
-3.47231e-05
0.000142618
0.000399879
0.000726261
5.13278e-05
4.4447e-05
4.22752e-05
8.26492e-06
-4.25758e-05
-9.745e-05
-0.000136939
-0.000221755
-0.000302004
-0.000300931
-0.000291131
-0.000316042
-0.000335458
-0.000336157
-0.000319445
-0.000248701
-0.00013497
1.54004e-05
0.000235263
0.000529745
5.71746e-05
4.89114e-05
3.84686e-05
7.65674e-06
-3.95526e-05
-9.71676e-05
-0.000131345
-0.00020707
-0.00029258
-0.000295066
-0.000287899
-0.000335323
-0.000390423
-0.000408474
-0.000394455
-0.000334156
-0.000238817
-0.00011789
6.51173e-05
0.000330799
6.24595e-05
5.49151e-05
3.71609e-05
4.53196e-06
-3.43227e-05
-9.60456e-05
-0.00012938
-0.00019197
-0.000277997
-0.000294687
-0.000298754
-0.000374793
-0.00045738
-0.00047673
-0.000465014
-0.000421313
-0.000348895
-0.000257142
-0.000109598
0.000129652
6.68272e-05
6.09519e-05
3.99501e-05
1.26127e-06
-3.32082e-05
-8.35889e-05
-0.000126142
-0.000182259
-0.000259557
-0.000299642
-0.000335775
-0.000427293
-0.000514186
-0.000540483
-0.000537334
-0.00051371
-0.000466467
-0.000402937
-0.000287366
-7.2045e-05
7.18734e-05
6.546e-05
4.76352e-05
6.50321e-07
-3.68557e-05
-7.25965e-05
-0.000115664
-0.00017851
-0.000253299
-0.000311969
-0.000383294
-0.000485553
-0.000572401
-0.00060448
-0.000614041
-0.000612871
-0.000592274
-0.00055475
-0.000466531
-0.000273209
7.69332e-05
6.87923e-05
5.63136e-05
6.82955e-06
-4.3669e-05
-6.74068e-05
-9.93421e-05
-0.000172617
-0.000264789
-0.000338947
-0.000425548
-0.000539232
-0.000632563
-0.000672814
-0.000696275
-0.000718727
-0.000725075
-0.00071145
-0.000646903
-0.000474178
8.36713e-05
7.15699e-05
6.23573e-05
2.1428e-05
-4.31077e-05
-7.51202e-05
-9.17257e-05
-0.000164366
-0.000284347
-0.000383145
-0.000471018
-0.000587994
-0.000694052
-0.000746453
-0.000784962
-0.00083064
-0.000863452
-0.000872519
-0.000828369
-0.00067382
9.11119e-05
7.55909e-05
6.53779e-05
3.78714e-05
-3.12456e-05
-8.61269e-05
-0.000103169
-0.000166273
-0.000301068
-0.000427924
-0.000525462
-0.0006421
-0.000757415
-0.000825689
-0.000880523
-0.000948441
-0.00100705
-0.00103727
-0.00101061
-0.000871154
9.86565e-05
8.30044e-05
6.66123e-05
4.95024e-05
-9.00099e-06
-8.77456e-05
-0.000134812
-0.000193076
-0.000317707
-0.000458692
-0.00057808
-0.000702656
-0.000826586
-0.000911549
-0.000983592
-0.00107208
-0.00115548
-0.00120602
-0.00119465
-0.00106737
0.000105304
9.41761e-05
7.18019e-05
5.39028e-05
9.60893e-06
-7.78746e-05
-0.00016353
-0.00024956
-0.000359402
-0.000488717
-0.000618512
-0.000759481
-0.000900312
-0.0010036
-0.00109342
-0.00120118
-0.00130784
-0.00137847
-0.00138091
-0.00126328
0.000112669
0.000104806
8.2847e-05
5.42896e-05
1.6036e-05
-6.74168e-05
-0.000182581
-0.000302193
-0.000422063
-0.000536276
-0.000658595
-0.000810078
-0.000972844
-0.00109896
-0.00120847
-0.00133479
-0.00146248
-0.00155313
-0.00156907
-0.00145929
0.000122202
0.000114398
9.56304e-05
5.8062e-05
7.68359e-06
-6.86624e-05
-0.000192304
-0.000343619
-0.000486989
-0.000604677
-0.000715994
-0.000866333
-0.00104467
-0.00119565
-0.00132678
-0.0014716
-0.00161842
-0.00172853
-0.00175813
-0.00165532
0.000133678
0.000124251
0.000105237
6.55218e-05
-2.81546e-06
-9.37667e-05
-0.000213235
-0.000374431
-0.000540496
-0.000676523
-0.000792164
-0.000936551
-0.00112258
-0.00129412
-0.0014478
-0.00161099
-0.00177523
-0.00190326
-0.00194612
-0.00184997
0.000146599
0.000135735
0.00011129
6.78906e-05
-1.26524e-05
-0.000120544
-0.000248993
-0.000409104
-0.000583881
-0.000741754
-0.000872746
-0.00102097
-0.00121118
-0.00139921
-0.00157177
-0.0017523
-0.00193245
-0.00207635
-0.00213176
-0.0020421
0.00015988
0.000148806
0.000115726
6.24741e-05
-2.45355e-05
-0.000148279
-0.000290388
-0.000453537
-0.00063105
-0.000801325
-0.000951995
-0.00111148
-0.00131013
-0.00151237
-0.00170139
-0.00189594
-0.00208973
-0.00224725
-0.00231463
-0.00223126
0.000173584
0.00016137
0.000118971
5.10361e-05
-4.66687e-05
-0.000176993
-0.000330999
-0.000503523
-0.000684819
-0.000863457
-0.00102989
-0.00120407
-0.00141343
-0.00163177
-0.00183682
-0.00204303
-0.00224744
-0.00241579
-0.00249396
-0.00241703
0.000187259
0.000172182
0.00012015
3.69831e-05
-7.52536e-05
-0.000211945
-0.00037236
-0.00055429
-0.000743598
-0.000930194
-0.00110971
-0.00129822
-0.00151915
-0.00175266
-0.00197556
-0.00219334
-0.00240599
-0.00258281
-0.00266964
-0.00259904
0.000199809
0.000180902
0.000117709
2.03479e-05
-0.000106478
-0.000253991
-0.000418891
-0.000605866
-0.000803755
-0.00100157
-0.00119322
-0.00139421
-0.00162768
-0.00187458
-0.00211405
-0.0023448
-0.00256486
-0.00274833
-0.00284147
-0.00277624
0.000210277
0.000186805
0.000111226
4.03088e-07
-0.000139478
-0.000298856
-0.000470602
-0.000661457
-0.000865494
-0.00107502
-0.00128079
-0.00149256
-0.00173757
-0.00199785
-0.00225095
-0.00249536
-0.00272306
-0.00291124
-0.00300882
-0.00294756
0.000217007
0.000188882
0.000101502
-2.32405e-05
-0.000174653
-0.000345055
-0.000525863
-0.000721974
-0.000930679
-0.00114898
-0.00137022
-0.00159403
-0.00184778
-0.00212085
-0.00238653
-0.00264308
-0.0028789
-0.00307053
-0.00317125
-0.00311269
0.000219106
0.000186325
8.81214e-05
-4.98682e-05
-0.000212111
-0.000392707
-0.000582766
-0.000785591
-0.000999926
-0.00122505
-0.00145901
-0.00169687
-0.00195877
-0.0022423
-0.00251984
-0.00278647
-0.00303007
-0.00322505
-0.00332812
-0.0032713
0.000215363
0.000178019
7.05575e-05
-7.89485e-05
-0.000251424
-0.000441322
-0.000640885
-0.000850854
-0.0010712
-0.00130348
-0.00154764
-0.00179844
-0.00206918
-0.00236111
-0.00264916
-0.00292411
-0.00317477
-0.00337363
-0.00347854
-0.00342274
0.00020486
0.000163212
4.82932e-05
-0.00011063
-0.00029235
-0.000490744
-0.000699044
-0.000916999
-0.00114348
-0.00138214
-0.00163574
-0.00189769
-0.00217633
-0.00247566
-0.00277305
-0.0030551
-0.00331161
-0.00351451
-0.00362101
-0.00356576
0.000186638
0.000141286
2.0649e-05
-0.000145358
-0.000334621
-0.000540627
-0.000756629
-0.000982192
-0.0012155
-0.0014596
-0.00172072
-0.00199303
-0.0022788
-0.0025839
-0.00288978
-0.00317795
-0.00343898
-0.00364565
-0.00375377
-0.00369882
0.000159919
0.000111588
-1.292e-05
-0.000183677
-0.000378188
-0.000590128
-0.000813105
-0.00104546
-0.00128491
-0.00153454
-0.00180111
-0.00208115
-0.00237421
-0.00268361
-0.00299605
-0.00329036
-0.00355481
-0.00376497
-0.0038751
-0.00382092
0.00012418
7.3648e-05
-5.28281e-05
-0.000225843
-0.0004234
-0.000639513
-0.000867582
-0.00110569
-0.00134994
-0.00160363
-0.00187528
-0.00215989
-0.00245792
-0.0027714
-0.00308795
-0.00338803
-0.00365531
-0.00386809
-0.00398114
-0.00392894
7.91862e-05
2.73055e-05
-9.93436e-05
-0.000272348
-0.000470692
-0.000689256
-0.000920296
-0.00116212
-0.00141028
-0.0016647
-0.00193896
-0.00222768
-0.00252648
-0.0028417
-0.00316052
-0.00346477
-0.00373498
-0.0039487
-0.00406464
-0.00401598
2.53596e-05
-2.7421e-05
-0.000152707
-0.000323876
-0.000520575
-0.000739423
-0.000972363
-0.00121557
-0.00146643
-0.00171944
-0.00198952
-0.00228065
-0.00257791
-0.00288877
-0.00320674
-0.00351179
-0.00378439
-0.00399849
-0.00411691
-0.0040736
-3.58573e-05
-8.9622e-05
-0.0002131
-0.000381258
-0.000574314
-0.000790604
-0.00102396
-0.00126663
-0.00151802
-0.00177152
-0.00203292
-0.00231881
-0.00261248
-0.00291137
-0.00322014
-0.00351857
-0.00378665
-0.00399646
-0.00411301
-0.00407498
-0.000102361
-0.000157174
-0.000279447
-0.000445012
-0.000634477
-0.000846545
-0.00107643
-0.00131564
-0.00156336
-0.00181764
-0.00207384
-0.00234918
-0.00263761
-0.00292216
-0.00320996
-0.00348766
-0.00373476
-0.00392409
-0.00401988
-0.00396945
-0.000170315
-0.000226751
-0.000348571
-0.000513208
-0.000702234
-0.000913697
-0.00114305
-0.00137875
-0.00161307
-0.00185084
-0.00208976
-0.00233925
-0.00261099
-0.0028851
-0.00315796
-0.0034247
-0.00366644
-0.00385728
-0.00395838
-0.00391806
-0.000234966
-0.000292363
-0.000413725
-0.000576777
-0.00076498
-0.000977648
-0.00121088
-0.00145542
-0.00169723
-0.00193512
-0.00216594
-0.0023842
-0.00259873
-0.00280502
-0.00299475
-0.00316966
-0.003321
-0.00343035
-0.00346867
-0.00340052
-0.000299715
-0.00036326
-0.000489556
-0.000657954
-0.000853413
-0.00107637
-0.00132191
-0.00158058
-0.0018377
-0.00208549
-0.00232143
-0.00253536
-0.00272034
-0.00286465
-0.00294876
-0.0029615
-0.00289879
-0.00276322
-0.00256629
-0.00233191
0.00285292
0.00313911
0.00315472
0.00312055
0.00304005
0.00288525
0.0026569
0.00238074
0.00207348
0.00173806
0.00138187
0.0010259
0.000681569
0.000341174
-5.56467e-06
-0.000370117
-0.000752287
-0.00115664
-0.00160079
-0.00210185
-0.00266229
-0.003287
-0.00398551
-0.00474154
-0.00551276
-0.00623159
-0.00681649
-0.00719191
-0.00731577
-0.00720567
-0.00693252
-0.00659193
-0.00625424
-0.00594749
-0.00569209
-0.00549268
-0.00535617
-0.00527697
-0.00523272
-0.00522392
-0.00524046
-0.00527684
-0.00533125
-0.00539408
-0.00546187
-0.00551515
-0.0055722
-0.00564176
-0.00570938
-0.00578298
-0.00583838
-0.0058987
-0.00597441
-0.00602624
-0.00608714
-0.00615353
-0.00620674
-0.00627907
-0.00633856
-0.00638835
-0.00646515
-0.00652209
-0.00656489
-0.00663694
-0.00670239
-0.00674842
-0.00679644
-0.00683506
-0.00689337
-0.00697604
-0.00700003
-0.0069999
-0.00707168
-0.00714655
-0.00715838
-0.00717502
-0.00722065
-0.00725954
-0.00728851
-0.00731083
-0.00733328
-0.00736669
-0.00739212
-0.00740563
-0.00742795
-0.00745411
-0.00747079
-0.00748575
-0.00750676
-0.00752506
-0.00753959
-0.00755606
-0.0075723
-0.00758743
-0.00760127
-0.00761519
-0.00762815
-0.00763922
-0.00764862
-0.00765523
0.00232678
0.00279108
0.00304737
0.00310194
0.00302328
0.00285442
0.00262129
0.00234796
0.00204498
0.00171232
0.00135694
0.00100119
0.00065753
0.000318101
-2.75566e-05
-0.000390868
-0.000771838
-0.00117459
-0.00161617
-0.00211432
-0.0026707
-0.00328979
-0.0039806
-0.00472518
-0.00548355
-0.00619113
-0.00677114
-0.00715132
-0.00728439
-0.00718301
-0.00691605
-0.00657951
-0.00624375
-0.00593883
-0.00568493
-0.00548649
-0.00535074
-0.00527207
-0.00522815
-0.0052197
-0.00523655
-0.00527313
-0.00532763
-0.00539068
-0.00545882
-0.00551217
-0.00556939
-0.00563918
-0.00570689
-0.00578085
-0.00583626
-0.00589663
-0.00597274
-0.00602456
-0.00608553
-0.00615217
-0.00620538
-0.00627785
-0.00633743
-0.00638727
-0.0064643
-0.00652122
-0.00656392
-0.00663621
-0.00670177
-0.00674777
-0.00679583
-0.00683449
-0.00689283
-0.00697571
-0.00699967
-0.00699937
-0.00707133
-0.00714636
-0.00715809
-0.00717472
-0.00722044
-0.00725936
-0.00728834
-0.00731067
-0.00733312
-0.00736657
-0.00739202
-0.00740552
-0.00742786
-0.00745404
-0.00747073
-0.00748568
-0.00750672
-0.00752502
-0.00753956
-0.00755603
-0.00757227
-0.00758741
-0.00760125
-0.00761518
-0.00762814
-0.00763921
-0.00764862
-0.00765521
0.00204487
0.00258933
0.00298363
0.00312612
0.00305573
0.00286271
0.00260869
0.00232635
0.00202147
0.00168843
0.00133157
0.000973637
0.000628838
0.000289114
-5.67222e-05
-0.000419319
-0.000799166
-0.00120083
-0.00163977
-0.00213342
-0.00268358
-0.00329322
-0.00396973
-0.00469173
-0.00542135
-0.00610115
-0.0066622
-0.00703887
-0.00718669
-0.0071121
-0.00687124
-0.00655281
-0.00622801
-0.00592921
-0.00568055
-0.0054862
-0.00535252
-0.00527452
-0.00523054
-0.00522197
-0.00523843
-0.00527444
-0.0053284
-0.00539057
-0.00545818
-0.00551139
-0.00556847
-0.00563813
-0.0057056
-0.00577936
-0.00583467
-0.00589496
-0.00597096
-0.00602269
-0.00608387
-0.00615054
-0.00620359
-0.00627622
-0.0063358
-0.00638556
-0.00646284
-0.00651987
-0.00656251
-0.00663482
-0.00670037
-0.00674649
-0.00679482
-0.00683344
-0.00689167
-0.00697479
-0.00699888
-0.00699854
-0.00707062
-0.00714573
-0.00715743
-0.00717417
-0.00722
-0.00725892
-0.00728795
-0.00731034
-0.00733281
-0.00736631
-0.00739181
-0.00740531
-0.00742768
-0.00745391
-0.0074706
-0.00748557
-0.00750663
-0.00752495
-0.00753949
-0.00755598
-0.00757223
-0.00758738
-0.00760123
-0.00761516
-0.00762814
-0.00763921
-0.00764869
-0.00765525
0.00181341
0.00237869
0.00284928
0.0030759
0.00304713
0.00285389
0.0025839
0.00228954
0.00198062
0.0016478
0.00129135
0.000933108
0.000588456
0.000249135
-9.62641e-05
-0.000457604
-0.000836039
-0.00123614
-0.00167087
-0.00215781
-0.00269961
-0.00329586
-0.00395228
-0.00464735
-0.0053443
-0.00599286
-0.00653204
-0.00690449
-0.00706833
-0.00702434
-0.00681475
-0.00651914
-0.00620842
-0.00591764
-0.00567452
-0.00548379
-0.00535181
-0.00527439
-0.00523022
-0.00522161
-0.00523777
-0.0052735
-0.00532703
-0.0053878
-0.00545484
-0.00550832
-0.00556541
-0.00563528
-0.0057023
-0.00577568
-0.00583157
-0.00589168
-0.00596716
-0.00601936
-0.00608084
-0.00614734
-0.00620057
-0.00627344
-0.0063329
-0.00638255
-0.00646019
-0.00651773
-0.00656027
-0.00663214
-0.0066977
-0.00674423
-0.00679295
-0.0068316
-0.00688949
-0.00697258
-0.00699721
-0.0069972
-0.00706906
-0.00714399
-0.00715594
-0.00717298
-0.00721887
-0.00725776
-0.0072869
-0.00730942
-0.00733196
-0.00736551
-0.00739108
-0.00740468
-0.00742713
-0.00745339
-0.00747014
-0.00748517
-0.00750628
-0.00752463
-0.00753921
-0.00755575
-0.00757203
-0.00758721
-0.00760109
-0.00761505
-0.00762806
-0.00763916
-0.00764881
-0.00765536
0.00159493
0.0021632
0.00267972
0.00298295
0.00301806
0.00284572
0.00256944
0.0022625
0.00194517
0.00160882
0.00125095
0.000892214
0.000547725
0.000208887
-0.000135793
-0.00049565
-0.0008725
-0.00127061
-0.00170044
-0.00217958
-0.00271175
-0.00329254
-0.00392572
-0.00459152
-0.00525582
-0.0058739
-0.00639214
-0.00676044
-0.00693907
-0.00692494
-0.00674873
-0.00647922
-0.00618547
-0.0059043
-0.0056668
-0.00547938
-0.00534903
-0.00527262
-0.00522867
-0.00522045
-0.00523674
-0.00527238
-0.00532555
-0.00538465
-0.00545108
-0.00550498
-0.00556205
-0.00563222
-0.00569857
-0.00577136
-0.00582809
-0.00588782
-0.00596257
-0.00601527
-0.00607691
-0.00614331
-0.00619672
-0.00626971
-0.00632909
-0.00637838
-0.00645637
-0.00651475
-0.00655703
-0.00662823
-0.00669382
-0.00674071
-0.00679003
-0.00682892
-0.00688603
-0.00696878
-0.00699455
-0.00699526
-0.00706643
-0.00714091
-0.00715344
-0.00717102
-0.00721688
-0.0072557
-0.00728502
-0.00730781
-0.00733045
-0.00736402
-0.00738975
-0.00740354
-0.00742608
-0.00745239
-0.00746927
-0.00748442
-0.00750559
-0.007524
-0.00753866
-0.00755527
-0.00757161
-0.00758684
-0.00760078
-0.00761479
-0.00762787
-0.00763901
-0.00764891
-0.00765549
0.00138059
0.00194857
0.00249994
0.00286692
0.00297075
0.0028366
0.00256539
0.00224669
0.00191645
0.00157187
0.00120964
0.000848829
0.000504201
0.000165938
-0.000177816
-0.000535846
-0.000910239
-0.00130544
-0.00173002
-0.0022001
-0.00272087
-0.00328496
-0.00389383
-0.00453029
-0.00516321
-0.00575221
-0.00625016
-0.006614
-0.00680567
-0.00681949
-0.00667682
-0.00643514
-0.00616069
-0.00589043
-0.00565871
-0.00547464
-0.00534571
-0.00527024
-0.00522674
-0.00521916
-0.00523577
-0.0052712
-0.00532403
-0.00538145
-0.00544712
-0.00550158
-0.00555844
-0.00562873
-0.0056946
-0.00576669
-0.0058241
-0.00588351
-0.0059574
-0.00601051
-0.00607241
-0.00613876
-0.00619224
-0.00626527
-0.00632459
-0.0063735
-0.00645186
-0.00651122
-0.00655323
-0.00662356
-0.00668908
-0.00673639
-0.00678647
-0.00682569
-0.0068817
-0.00696396
-0.00699129
-0.00699288
-0.00706296
-0.00713687
-0.00715025
-0.00716846
-0.00721423
-0.00725292
-0.00728248
-0.00730561
-0.00732839
-0.00736194
-0.00738785
-0.00740193
-0.00742458
-0.00745094
-0.00746798
-0.00748329
-0.00750455
-0.00752304
-0.00753782
-0.00755452
-0.00757094
-0.00758625
-0.00760027
-0.00761435
-0.00762754
-0.00763873
-0.00764893
-0.00765559
0.00116725
0.00173733
0.00231734
0.00273615
0.00290437
0.00281752
0.00256147
0.00223537
0.0018914
0.00153599
0.00116654
0.000801359
0.000456012
0.000118572
-0.000223848
-0.000579351
-0.000949997
-0.00134116
-0.00176017
-0.00221992
-0.00272751
-0.00327443
-0.00385889
-0.0044659
-0.00506824
-0.00562957
-0.00610786
-0.00646661
-0.00666899
-0.0067082
-0.00659855
-0.00638608
-0.00613312
-0.00587534
-0.00564994
-0.00546945
-0.00534177
-0.00526709
-0.00522413
-0.00521733
-0.00523434
-0.00526945
-0.00532217
-0.00537797
-0.00544269
-0.00549784
-0.00555433
-0.0056247
-0.00569039
-0.0057616
-0.00581953
-0.00587868
-0.00595166
-0.00600527
-0.00606749
-0.00613371
-0.00618722
-0.00626028
-0.00631964
-0.00636821
-0.00644688
-0.00650731
-0.00654903
-0.00661833
-0.00668382
-0.00673166
-0.00678255
-0.00682206
-0.00687683
-0.00695859
-0.00698767
-0.00699019
-0.00705899
-0.0071323
-0.00714665
-0.00716553
-0.00721114
-0.00724971
-0.00727955
-0.00730307
-0.00732597
-0.00735948
-0.00738561
-0.00740002
-0.00742279
-0.0074492
-0.00746642
-0.00748191
-0.00750327
-0.00752187
-0.00753678
-0.00755359
-0.0075701
-0.00758551
-0.00759964
-0.0076138
-0.0076271
-0.00763837
-0.00764888
-0.00765568
0.000955254
0.00152993
0.00213424
0.00259499
0.00281911
0.00278348
0.00255114
0.00222425
0.00186874
0.00150151
0.00112283
0.000750878
0.000403505
6.70577e-05
-0.000273391
-0.000625712
-0.000991859
-0.00137785
-0.00179038
-0.00223867
-0.00273156
-0.00326086
-0.00382107
-0.00439865
-0.00497107
-0.00550605
-0.00596514
-0.00631764
-0.00652871
-0.00659084
-0.00651309
-0.0063309
-0.00610131
-0.00585796
-0.00564011
-0.00546357
-0.00533707
-0.00526304
-0.00522047
-0.0052145
-0.0052321
-0.00526699
-0.00531975
-0.00537397
-0.00543765
-0.00549356
-0.00554984
-0.00562031
-0.0056857
-0.00575598
-0.0058145
-0.00587329
-0.00594536
-0.00599962
-0.00606216
-0.00612822
-0.00618173
-0.00625485
-0.00631438
-0.00636255
-0.00644148
-0.00650309
-0.00654447
-0.00661264
-0.00667822
-0.00672663
-0.00677823
-0.00681805
-0.0068716
-0.00695281
-0.00698373
-0.00698722
-0.00705467
-0.00712735
-0.00714275
-0.00716232
-0.00720776
-0.00724622
-0.00727634
-0.00730026
-0.0073233
-0.00735678
-0.00738314
-0.0073979
-0.0074208
-0.00744727
-0.00746469
-0.00748038
-0.00750185
-0.00752057
-0.00753562
-0.00755254
-0.00756915
-0.00758467
-0.00759891
-0.00761316
-0.0076266
-0.00763795
-0.00764878
-0.00765574
0.00074463
0.00132537
0.00195107
0.00244647
0.00271791
0.0027326
0.00253147
0.00221074
0.00184733
0.00146892
0.00108022
0.000699493
0.000347678
1.16787e-05
-0.000326327
-0.000675079
-0.00103629
-0.00141559
-0.00181991
-0.00225584
-0.00273292
-0.00324379
-0.00377996
-0.00432865
-0.00487161
-0.00538129
-0.00582167
-0.00616693
-0.00638511
-0.0064678
-0.0064203
-0.00626897
-0.00606448
-0.00583756
-0.00562875
-0.00545675
-0.00533151
-0.00525813
-0.00521577
-0.00521049
-0.00522906
-0.00526383
-0.00531659
-0.00536938
-0.00543196
-0.00548884
-0.00554512
-0.00561548
-0.00568048
-0.0057499
-0.00580914
-0.0058676
-0.00593858
-0.00599348
-0.00605655
-0.00612245
-0.00617581
-0.00624898
-0.00630877
-0.00635648
-0.00643563
-0.00649858
-0.00653964
-0.00660655
-0.0066722
-0.00672121
-0.00677355
-0.00681375
-0.00686606
-0.00694662
-0.00697946
-0.006984
-0.00705002
-0.00712204
-0.00713857
-0.00715885
-0.00720411
-0.00724245
-0.00727289
-0.00729724
-0.00732044
-0.00735387
-0.00738048
-0.00739562
-0.00741865
-0.00744518
-0.00746281
-0.00747871
-0.0075003
-0.00751915
-0.00753436
-0.0075514
-0.00756811
-0.00758375
-0.00759812
-0.00761246
-0.00762605
-0.0076375
-0.00764862
-0.0076558
0.000534555
0.00112232
0.00176765
0.00229244
0.00260377
0.00266511
0.0024998
0.0021919
0.00182499
0.00143749
0.00103913
0.000648418
0.000289561
-4.72649e-05
-0.000382485
-0.000727178
-0.00108273
-0.00145403
-0.0018485
-0.00227118
-0.00273173
-0.00322299
-0.00373543
-0.00425626
-0.00477024
-0.00525557
-0.00567769
-0.00601516
-0.00623895
-0.00633965
-0.00632049
-0.00619971
-0.00602186
-0.00581343
-0.00561527
-0.0054491
-0.00532532
-0.00525249
-0.0052103
-0.00520541
-0.00522511
-0.00525982
-0.00531263
-0.00536417
-0.00542559
-0.00548373
-0.00554002
-0.00561018
-0.00567505
-0.00574337
-0.00580328
-0.00586177
-0.00593133
-0.00598663
-0.00605055
-0.00611639
-0.00616942
-0.00624261
-0.0063028
-0.00635006
-0.0064293
-0.00649373
-0.00653461
-0.00660003
-0.00666561
-0.00671538
-0.00676862
-0.00680918
-0.00686007
-0.00693996
-0.00697488
-0.00698055
-0.00704503
-0.00711636
-0.0071341
-0.00715511
-0.00720018
-0.00723842
-0.00726919
-0.00729399
-0.00731735
-0.00735075
-0.00737762
-0.00739316
-0.00741635
-0.00744293
-0.00746079
-0.00747692
-0.00749864
-0.00751762
-0.007533
-0.00755016
-0.007567
-0.00758276
-0.00759727
-0.00761171
-0.00762545
-0.00763701
-0.00764842
-0.00765584
0.000325815
0.000921148
0.00158466
0.00213489
0.00248009
0.00258313
0.002455
0.00216573
0.0017996
0.00140563
0.000999095
0.000598414
0.000230818
-0.000108727
-0.000441443
-0.00078149
-0.00113072
-0.00149348
-0.00187688
-0.0022849
-0.00272789
-0.00319867
-0.00368777
-0.0041819
-0.00466751
-0.00512911
-0.00553346
-0.0058627
-0.00609066
-0.00620708
-0.00621429
-0.00612322
-0.005973
-0.00578506
-0.00559925
-0.0054405
-0.00531862
-0.00524603
-0.00520416
-0.00519944
-0.00522003
-0.00525474
-0.00530782
-0.0053584
-0.00541858
-0.00547797
-0.00553443
-0.0056045
-0.00566947
-0.00573642
-0.00579669
-0.00585554
-0.00592372
-0.00597906
-0.00604395
-0.00611012
-0.00616275
-0.0062357
-0.00629639
-0.00634323
-0.00642237
-0.00648846
-0.00652936
-0.00659303
-0.0066584
-0.00670915
-0.00676344
-0.00680426
-0.00685358
-0.00693282
-0.00697003
-0.00697684
-0.00703964
-0.00711029
-0.00712933
-0.0071511
-0.00719595
-0.00723409
-0.00726523
-0.0072905
-0.00731403
-0.00734739
-0.00737455
-0.0073905
-0.00741386
-0.00744051
-0.00745863
-0.00747498
-0.00749685
-0.00751597
-0.00753153
-0.00754884
-0.0075658
-0.00758169
-0.00759635
-0.00761091
-0.00762479
-0.00763648
-0.00764815
-0.00765585
0.000118004
0.000720781
0.00140143
0.00197447
0.00234871
0.00248824
0.00239633
0.00212974
0.00176903
0.00137159
0.000959345
0.000550231
0.000173018
-0.000171475
-0.000502963
-0.000837728
-0.00118013
-0.00153394
-0.00190526
-0.00229702
-0.00272102
-0.00317136
-0.0036373
-0.00410547
-0.00456344
-0.00500181
-0.00538936
-0.00570989
-0.00594095
-0.00607117
-0.00610238
-0.00603983
-0.00591722
-0.00575164
-0.00558001
-0.00542992
-0.00531103
-0.00523879
-0.00519729
-0.00519263
-0.00521388
-0.0052486
-0.00530204
-0.00535201
-0.00541072
-0.00547116
-0.00552826
-0.00559838
-0.00566358
-0.00572927
-0.00578941
-0.00584862
-0.00591595
-0.00597108
-0.00603663
-0.00610351
-0.00615576
-0.00622811
-0.00628938
-0.00633592
-0.00641494
-0.00648283
-0.0065238
-0.00658555
-0.00665065
-0.00670244
-0.00675785
-0.00679899
-0.00684666
-0.00692519
-0.00696485
-0.00697286
-0.00703384
-0.00710379
-0.00712426
-0.00714679
-0.00719139
-0.00722946
-0.00726099
-0.00728675
-0.00731047
-0.0073438
-0.00737126
-0.00738766
-0.0074112
-0.00743792
-0.00745629
-0.0074729
-0.00749492
-0.00751421
-0.00752996
-0.00754741
-0.00756451
-0.00758055
-0.00759535
-0.00761004
-0.00762408
-0.0076359
-0.00764783
-0.00765583
-9.03627e-05
0.00051936
0.00121657
0.001811
0.00221058
0.00238173
0.002324
0.00208284
0.00173216
0.001334
0.000918348
0.000502941
0.000116527
-0.000234672
-0.000566648
-0.000895866
-0.00123064
-0.00157496
-0.00193376
-0.00230819
-0.00271153
-0.0031412
-0.00358411
-0.00402686
-0.00445828
-0.00487433
-0.00524606
-0.00555744
-0.00579038
-0.00593259
-0.00598549
-0.00594983
-0.00585409
-0.00571223
-0.00555679
-0.00541658
-0.00530218
-0.00523114
-0.00518981
-0.00518494
-0.00520687
-0.00524133
-0.00529481
-0.00534447
-0.00540186
-0.00546348
-0.00552155
-0.0055917
-0.0056573
-0.00572198
-0.00578159
-0.00584087
-0.00590759
-0.00596265
-0.00602863
-0.0060962
-0.00614825
-0.00621995
-0.00628189
-0.00632827
-0.00640704
-0.00647665
-0.00651774
-0.00657758
-0.00664242
-0.00669522
-0.00675178
-0.0067934
-0.00683936
-0.006917
-0.00695923
-0.00696859
-0.00702763
-0.00709684
-0.00711885
-0.00714218
-0.0071865
-0.00722451
-0.00725647
-0.00728272
-0.00730664
-0.00733994
-0.00736774
-0.00738461
-0.00740834
-0.00743514
-0.00745379
-0.00747067
-0.00749286
-0.00751232
-0.00752826
-0.00754588
-0.00756312
-0.00757933
-0.00759428
-0.00760911
-0.00762331
-0.00763528
-0.00764745
-0.00765577
-0.000297733
0.000318268
0.00103127
0.00164571
0.0020682
0.00226664
0.00223999
0.0020251
0.00168765
0.00129134
0.000874055
0.000454904
6.12865e-05
-0.000296984
-0.000631046
-0.000955461
-0.00128162
-0.00161572
-0.0019621
-0.00231893
-0.00270005
-0.00310792
-0.00352849
-0.00394683
-0.00435275
-0.00474714
-0.00510358
-0.0054059
-0.00563939
-0.00579186
-0.00586471
-0.00585391
-0.0057836
-0.00566603
-0.00552869
-0.00540006
-0.00529154
-0.00522275
-0.00518188
-0.00517632
-0.00519895
-0.0052331
-0.00528595
-0.00533559
-0.0053923
-0.00545515
-0.00551407
-0.00558411
-0.00565037
-0.00571435
-0.00577342
-0.00583241
-0.00589831
-0.00595371
-0.00602034
-0.0060883
-0.00614008
-0.00621125
-0.006274
-0.0063202
-0.00639834
-0.00646975
-0.00651135
-0.00656922
-0.00663367
-0.0066875
-0.00674522
-0.0067874
-0.00683161
-0.00690825
-0.00695319
-0.00696403
-0.00702102
-0.00708944
-0.00711308
-0.00713724
-0.00718126
-0.00721922
-0.00725162
-0.00727842
-0.00730254
-0.00733582
-0.00736396
-0.00738134
-0.00740526
-0.00743216
-0.0074511
-0.00746827
-0.00749064
-0.00751029
-0.00752644
-0.00754424
-0.00756163
-0.00757802
-0.00759313
-0.00760811
-0.00762247
-0.00763459
-0.00764701
-0.00765566
-0.000502416
0.000118396
0.000845679
0.00147838
0.00192194
0.00214424
0.00214501
0.0019557
0.00163402
0.00124274
0.000825861
0.000405559
7.14775e-06
-0.000357262
-0.00069466
-0.00101588
-0.00133301
-0.00165572
-0.00198963
-0.00232949
-0.00268741
-0.00307215
-0.00347064
-0.00386582
-0.00424705
-0.00461982
-0.00496192
-0.00525581
-0.00548883
-0.00564962
-0.00574053
-0.00575291
-0.00570599
-0.00561262
-0.00549493
-0.00537967
-0.0052784
-0.00521268
-0.00517349
-0.00516715
-0.00518998
-0.00522421
-0.00527577
-0.0053253
-0.00538171
-0.00544554
-0.00550568
-0.00557564
-0.00564249
-0.00570636
-0.00576496
-0.0058235
-0.00588844
-0.00594397
-0.00601153
-0.00608003
-0.00613105
-0.00620159
-0.00626569
-0.00631177
-0.00638888
-0.00646234
-0.00650484
-0.00656033
-0.0066241
-0.00667925
-0.00673826
-0.0067809
-0.00682337
-0.00689902
-0.00694674
-0.0069591
-0.00701393
-0.00708156
-0.00710695
-0.00713193
-0.00717563
-0.00721357
-0.00724646
-0.00727381
-0.00729815
-0.0073314
-0.00735991
-0.00737784
-0.00740198
-0.00742897
-0.00744821
-0.0074657
-0.00748825
-0.00750812
-0.00752448
-0.00754249
-0.00756003
-0.00757662
-0.00759189
-0.00760703
-0.00762156
-0.00763383
-0.0076465
-0.0076555
-0.000704841
-8.08843e-05
0.000658968
0.00130861
0.00177185
0.0020159
0.00204058
0.00187523
0.0015712
0.00118785
0.000773268
0.000353579
-4.76028e-05
-0.000416184
-0.000756646
-0.00107615
-0.00138485
-0.00169497
-0.0020158
-0.00233975
-0.00267446
-0.0030348
-0.0034103
-0.00378357
-0.00414191
-0.00449308
-0.00482188
-0.00510794
-0.00533954
-0.00550676
-0.00561323
-0.00564767
-0.00562214
-0.0055517
-0.00545463
-0.00535424
-0.00526218
-0.00520059
-0.00516438
-0.00515804
-0.00518013
-0.00521442
-0.00526457
-0.00531338
-0.00536926
-0.00543418
-0.00549669
-0.00556677
-0.00563356
-0.00569774
-0.00575598
-0.00581414
-0.00587834
-0.00593306
-0.00600139
-0.00607157
-0.00612165
-0.0061908
-0.00625681
-0.00630322
-0.00637884
-0.00645423
-0.00649782
-0.00655071
-0.00661372
-0.00667061
-0.00673106
-0.00677392
-0.00681446
-0.00688921
-0.00693992
-0.00695378
-0.00700631
-0.0070732
-0.00710044
-0.00712623
-0.0071696
-0.00720757
-0.00724095
-0.00726885
-0.00729343
-0.0073267
-0.0073556
-0.00737409
-0.00739843
-0.00742555
-0.00744511
-0.00746295
-0.0074857
-0.0075058
-0.00752237
-0.0075406
-0.00755831
-0.00757511
-0.00759056
-0.00760586
-0.00762057
-0.007633
-0.00764593
-0.00765527
-0.000905311
-0.000279014
0.000471668
0.00113718
0.00161874
0.00188305
0.00192873
0.00178469
0.00149862
0.00112553
0.000715388
0.000298001
-0.00010394
-0.000474446
-0.000816289
-0.00113481
-0.0014365
-0.00173377
-0.00204001
-0.00234863
-0.00266145
-0.00299643
-0.00334791
-0.00370021
-0.00403835
-0.00436837
-0.00468362
-0.00496243
-0.00519209
-0.00536438
-0.00548351
-0.00553838
-0.00553314
-0.00548355
-0.00540711
-0.00532302
-0.00524256
-0.00518633
-0.00515352
-0.00514865
-0.00516975
-0.00520349
-0.0052524
-0.00529983
-0.005355
-0.00542131
-0.00548693
-0.00555759