/*--------------------------------*- C++ -*----------------------------------*\
  =========                 |
  \\      /  F ield         | OpenFOAM: The Open Source CFD Toolbox
   \\    /   O peration     | Website:  https://openfoam.org
    \\  /    A nd           | Version:  10
     \\/     M anipulation  |
\*---------------------------------------------------------------------------*/
FoamFile
{
    format      ascii;
    class       surfaceScalarField;
    location    "0.8";
    object      phi;
}
// * * * * * * * * * * * * * * * * * * * * * * * * * * * * * * * * * * * * * //

dimensions      [0 3 -1 0 0 0 0];

internalField   nonuniform List<scalar> 
9440
(
3.88133e-06
-4.67278e-09
3.8779e-06
-1.88515e-08
3.87897e-06
-8.91447e-09
3.87653e-06
-1.15313e-08
3.87876e-06
2.75174e-08
3.87796e-06
-5.76096e-09
3.87916e-06
1.89865e-08
3.87923e-06
-1.54622e-08
3.87953e-06
1.85675e-11
3.88026e-06
-2.81966e-08
3.88107e-06
-1.47999e-09
3.88192e-06
-2.72632e-08
3.88264e-06
-3.31909e-09
3.88319e-06
-2.05664e-08
3.88377e-06
-3.56295e-09
3.88374e-06
-1.43844e-08
3.88291e-06
3.09439e-09
3.87901e-06
-8.71965e-10
3.8651e-06
2.59713e-08
3.94801e-08
3.8438e-06
4.18323e-06
-2.04292e-09
4.18682e-06
-2.24392e-08
4.18324e-06
-5.33447e-09
4.18571e-06
-1.40019e-08
4.18454e-06
2.86874e-08
4.18624e-06
-7.46356e-09
4.18627e-06
1.89563e-08
4.18619e-06
-1.53765e-08
4.18726e-06
-1.0552e-09
4.18504e-06
-2.59758e-08
4.18746e-06
-3.9033e-09
4.1849e-06
-2.47011e-08
4.18786e-06
-6.27578e-09
4.18654e-06
-1.92458e-08
4.18884e-06
-5.87149e-09
4.18567e-06
-1.121e-08
4.18419e-06
4.5738e-09
4.1731e-06
1.02231e-08
4.16638e-06
3.26815e-08
4.56882e-08
4.16018e-06
4.51757e-06
4.47868e-10
4.52008e-06
-2.49497e-08
4.51784e-06
-3.08767e-09
4.51854e-06
-1.47043e-08
4.51984e-06
2.73813e-08
4.51861e-06
-6.2318e-09
4.5222e-06
1.53717e-08
4.51869e-06
-1.18663e-08
4.52345e-06
-5.81571e-09
4.51804e-06
-2.05681e-08
4.52374e-06
-9.60285e-09
4.51813e-06
-1.90962e-08
4.52437e-06
-1.25106e-08
4.51964e-06
-1.45187e-08
4.52425e-06
-1.04764e-08
4.51803e-06
-4.99387e-09
4.51771e-06
4.89497e-09
4.50579e-06
2.21453e-08
4.50113e-06
3.73394e-08
5.07426e-08
4.49607e-06
4.88025e-06
1.14497e-09
4.88023e-06
-2.4929e-08
4.88084e-06
-3.69571e-09
4.87892e-06
-1.27876e-08
4.88292e-06
2.33873e-08
4.87923e-06
-2.54532e-09
4.88482e-06
9.77942e-09
4.88004e-06
-7.08604e-09
4.88529e-06
-1.10639e-08
4.88092e-06
-1.61981e-08
4.88548e-06
-1.41676e-08
4.88414e-06
-1.77519e-08
4.88706e-06
-1.54323e-08
4.88612e-06
-1.35798e-08
4.88598e-06
-1.03333e-08
4.88115e-06
-1.60962e-10
4.87165e-06
1.43946e-08
4.86462e-06
2.91729e-08
4.86094e-06
4.10211e-08
5.32951e-08
4.85838e-06
5.2706e-06
1.1915e-09
5.26934e-06
-2.36664e-08
5.27164e-06
-6.00222e-09
5.26826e-06
-9.40065e-09
5.27369e-06
1.79506e-08
5.26914e-06
2.00444e-09
5.275e-06
3.92542e-09
5.27086e-06
-2.94401e-09
5.27493e-06
-1.51395e-08
5.27421e-06
-1.54752e-08
5.27614e-06
-1.60969e-08
5.27684e-06
-1.84508e-08
5.27817e-06
-1.67665e-08
5.2767e-06
-1.21072e-08
5.2734e-06
-7.03818e-09
5.26457e-06
8.66793e-09
5.25704e-06
2.19335e-08
5.25278e-06
3.3431e-08
5.24987e-06
4.39327e-08
5.47496e-08
5.24841e-06
5.69164e-06
1.01201e-09
5.68939e-06
-2.14133e-08
5.69299e-06
-9.61133e-09
5.68895e-06
-5.35434e-09
5.69437e-06
1.25334e-08
5.69103e-06
5.34347e-09
5.69456e-06
3.91723e-10
5.6946e-06
-2.98802e-09
5.69506e-06
-1.55925e-08
5.69734e-06
-1.77575e-08
5.69819e-06
-1.69474e-08
5.69881e-06
-1.90699e-08
5.69874e-06
-1.66976e-08
5.69535e-06
-8.71523e-09
5.6873e-06
1.01259e-09
5.67983e-06
1.61368e-08
5.67517e-06
2.65911e-08
5.672e-06
3.65974e-08
5.66981e-06
4.61275e-08
5.57127e-08
5.66885e-06
6.14616e-06
7.21311e-10
6.14319e-06
-1.84376e-08
6.14746e-06
-1.38828e-08
6.14374e-06
-1.63625e-09
6.1478e-06
8.4762e-09
6.14708e-06
6.05651e-09
6.14757e-06
-9.87931e-11
6.15073e-06
-6.14365e-09
6.15076e-06
-1.56246e-08
6.15215e-06
-1.91462e-08
6.15385e-06
-1.86458e-08
6.15341e-06
-1.86286e-08
6.15069e-06
-1.39834e-08
6.14393e-06
-1.95437e-09
6.13544e-06
9.50258e-09
6.1311e-06
2.04836e-08
6.12746e-06
3.02297e-08
6.125e-06
3.90556e-08
6.12322e-06
4.7909e-08
5.63508e-08
6.12258e-06
6.6369e-06
3.83034e-10
6.63362e-06
-1.51585e-08
6.63739e-06
-1.7648e-08
6.63559e-06
1.60809e-10
6.63701e-06
7.0595e-09
6.6398e-06
3.26369e-09
6.63874e-06
9.62191e-10
6.64136e-06
-8.76376e-09
6.64356e-06
-1.78247e-08
6.64395e-06
-1.95369e-08
6.64448e-06
-1.91807e-08
6.64226e-06
-1.64082e-08
6.63557e-06
-7.29537e-09
6.628e-06
5.62119e-09
6.62291e-06
1.45883e-08
6.6194e-06
2.40002e-08
6.61649e-06
3.31399e-08
6.61428e-06
4.12617e-08
6.61289e-06
4.93033e-08
5.68161e-08
6.61242e-06
7.16673e-06
7.91978e-11
7.16374e-06
-1.2166e-08
7.1654e-06
-1.93083e-08
7.1673e-06
-1.74158e-09
7.16647e-06
7.8982e-09
7.16959e-06
1.42563e-10
7.1714e-06
-8.49854e-10
7.17135e-06
-8.72007e-09
7.17354e-06
-2.00069e-08
7.17466e-06
-2.06648e-08
7.17267e-06
-1.71851e-08
7.16758e-06
-1.13206e-08
7.16049e-06
-2.0373e-10
7.15453e-06
1.15826e-08
7.15029e-06
1.88273e-08
7.14734e-06
2.69451e-08
7.14479e-06
3.56952e-08
7.14281e-06
4.32395e-08
7.14171e-06
5.04029e-08
5.7162e-08
7.14137e-06
7.73882e-06
-1.35506e-10
7.73665e-06
-1.00021e-08
7.73556e-06
-1.82139e-08
7.74035e-06
-6.5302e-09
7.74007e-06
8.17492e-09
7.74104e-06
-8.25986e-10
7.74504e-06
-4.84961e-09
7.74507e-06
-8.74908e-09
7.74505e-06
-1.99861e-08
7.74529e-06
-2.09089e-08
7.7407e-06
-1.25967e-08
7.73334e-06
-3.95975e-09
7.72772e-06
5.42114e-09
7.72407e-06
1.52269e-08
7.72057e-06
2.23365e-08
7.71778e-06
2.97272e-08
7.71546e-06
3.80227e-08
7.71375e-06
4.4944e-08
7.71282e-06
5.13376e-08
5.73618e-08
7.71262e-06
8.35658e-06
-2.56986e-10
8.35561e-06
-9.03476e-09
8.35278e-06
-1.53757e-08
8.35747e-06
-1.12212e-08
8.36035e-06
5.29693e-09
8.35959e-06
-6.96217e-11
8.36236e-06
-7.62326e-09
8.36445e-06
-1.08346e-08
8.36188e-06
-1.74178e-08
8.35895e-06
-1.79742e-08
8.35427e-06
-7.91784e-09
8.34792e-06
2.3888e-09
8.34292e-06
1.04206e-08
8.3396e-06
1.85453e-08
8.33664e-06
2.52971e-08
8.334e-06
3.23692e-08
8.33194e-06
4.00816e-08
8.33045e-06
4.64349e-08
8.32963e-06
5.21533e-08
5.7413e-08
8.32958e-06
9.02378e-06
-3.90607e-10
9.02395e-06
-9.20823e-09
9.021e-06
-1.24206e-08
9.02233e-06
-1.25526e-08
9.02877e-06
-1.13891e-09
9.02894e-06
-2.47995e-10
9.02886e-06
-7.53731e-09
9.03063e-06
-1.26085e-08
9.02804e-06
-1.48209e-08
9.02141e-06
-1.13522e-08
9.01605e-06
-2.55036e-09
9.01211e-06
6.32523e-09
9.00823e-06
1.42986e-08
9.00496e-06
2.18195e-08
9.00209e-06
2.81613e-08
8.99966e-06
3.48033e-08
8.99788e-06
4.18594e-08
8.99656e-06
4.77596e-08
8.99586e-06
5.285e-08
5.73459e-08
8.99593e-06
9.74432e-06
-6.12771e-10
9.74516e-06
-1.00455e-08
9.74338e-06
-1.06375e-08
9.74122e-06
-1.03963e-08
9.74805e-06
-7.96284e-09
9.75153e-06
-3.73306e-09
9.74981e-06
-5.81817e-09
9.74841e-06
-1.12046e-08
9.74599e-06
-1.24057e-08
9.73976e-06
-5.1148e-09
9.73356e-06
3.64977e-09
9.72958e-06
1.0298e-08
9.72671e-06
1.71708e-08
9.72379e-06
2.47388e-08
9.72097e-06
3.09804e-08
9.71872e-06
3.70591e-08
9.71717e-06
4.34078e-08
9.71603e-06
4.88989e-08
9.71547e-06
5.34079e-08
5.71735e-08
9.71564e-06
1.05225e-05
-9.96653e-10
1.05227e-05
-1.03046e-08
1.05235e-05
-1.13664e-08
1.05198e-05
-6.78083e-09
1.05233e-05
-1.14352e-08
1.05293e-05
-9.71151e-09
1.05291e-05
-5.64183e-09
1.05236e-05
-5.69244e-09
1.05187e-05
-7.55058e-09
1.05149e-05
-1.24601e-09
1.05101e-05
8.46079e-09
1.05057e-05
1.46878e-08
1.05026e-05
2.02241e-08
1.05002e-05
2.71857e-08
1.04976e-05
3.35924e-08
1.04955e-05
3.91578e-08
1.04941e-05
4.47488e-08
1.04932e-05
4.98564e-08
1.04928e-05
5.38041e-08
5.69152e-08
1.0493e-05
1.13627e-05
-1.52495e-09
1.13619e-05
-9.47767e-09
1.13646e-05
-1.4046e-08
1.13624e-05
-4.66033e-09
1.13614e-05
-1.03821e-08
1.13661e-05
-1.44242e-08
1.13688e-05
-8.34749e-09
1.13637e-05
-6.38922e-10
1.13558e-05
3.52942e-10
1.13512e-05
3.41392e-09
1.13481e-05
1.15218e-08
1.13444e-05
1.83961e-08
1.13411e-05
2.35117e-08
1.13387e-05
2.96291e-08
1.13364e-05
3.58691e-08
1.13345e-05
4.10702e-08
1.13333e-05
4.59677e-08
1.13325e-05
5.05849e-08
1.13323e-05
5.40232e-08
5.65556e-08
1.13327e-05
1.22698e-05
-2.02823e-09
1.22685e-05
-8.129e-09
1.22709e-05
-1.64855e-08
1.22724e-05
-6.13263e-09
1.22687e-05
-6.64476e-09
1.22686e-05
-1.43345e-08
1.22713e-05
-1.10965e-08
1.22705e-05
1.83006e-10
1.22631e-05
7.71155e-09
1.22563e-05
1.02875e-08
1.22527e-05
1.50651e-08
1.225e-05
2.11603e-08
1.22471e-05
2.64073e-08
1.22445e-05
3.21855e-08
1.22425e-05
3.78727e-08
1.22408e-05
4.28082e-08
1.22397e-05
4.70662e-08
1.22392e-05
5.10828e-08
1.22391e-05
5.40618e-08
5.60782e-08
1.22396e-05
1.32492e-05
-2.31739e-09
1.32488e-05
-7.73975e-09
1.32487e-05
-1.63155e-08
1.32526e-05
-1.004e-08
1.32498e-05
-3.92458e-09
1.32451e-05
-9.54693e-09
1.32436e-05
-9.66229e-09
1.32443e-05
-5.06455e-10
1.32418e-05
1.02055e-08
1.32358e-05
1.62926e-08
1.32307e-05
2.01692e-08
1.32277e-05
2.41226e-08
1.32253e-05
2.88645e-08
1.3223e-05
3.44576e-08
1.32212e-05
3.97241e-08
1.32197e-05
4.43027e-08
1.32187e-05
4.80622e-08
1.32184e-05
5.1355e-08
1.32186e-05
5.39161e-08
5.54713e-08
1.32192e-05
1.43068e-05
-2.43063e-09
1.43079e-05
-8.76844e-09
1.43058e-05
-1.42058e-08
1.43083e-05
-1.25826e-08
1.43087e-05
-4.31656e-09
1.43029e-05
-3.79115e-09
1.42974e-05
-4.0761e-09
1.42956e-05
1.29688e-09
1.42956e-05
1.01687e-08
1.42927e-05
1.91849e-08
1.42882e-05
2.46675e-08
1.42842e-05
2.81088e-08
1.42817e-05
3.13389e-08
1.42798e-05
3.63779e-08
1.42782e-05
4.1331e-08
1.4277e-05
4.55264e-08
1.42762e-05
4.88958e-08
1.42761e-05
5.14545e-08
1.42764e-05
5.35959e-08
5.47348e-08
1.42771e-05
1.54491e-05
-2.5593e-09
1.54503e-05
-9.89686e-09
1.54489e-05
-1.28011e-08
1.54479e-05
-1.1678e-08
1.54496e-05
-5.9414e-09
1.54459e-05
-1.1775e-10
1.5439e-05
2.83779e-09
1.54341e-05
6.18057e-09
1.54328e-05
1.14511e-08
1.54323e-05
1.96738e-08
1.54298e-05
2.7241e-08
1.54261e-05
3.17583e-08
1.54231e-05
3.43839e-08
1.54212e-05
3.82227e-08
1.54199e-05
4.26674e-08
1.54189e-05
4.64714e-08
1.54184e-05
4.94366e-08
1.54184e-05
5.1429e-08
1.54189e-05
5.31046e-08
5.38629e-08
1.54198e-05
1.66827e-05
-2.75822e-09
1.66831e-05
-1.03476e-08
1.66831e-05
-1.27605e-08
1.66803e-05
-8.92518e-09
1.66792e-05
-4.84054e-09
1.66778e-05
1.28348e-09
1.66728e-05
7.86484e-09
1.6667e-05
1.19366e-08
1.66634e-05
1.50923e-08
1.66623e-05
2.07297e-08
1.66615e-05
2.80774e-08
1.66591e-05
3.41587e-08
1.66563e-05
3.72125e-08
1.66542e-05
4.02564e-08
1.6653e-05
4.39112e-08
1.66523e-05
4.71149e-08
1.66521e-05
4.96629e-08
1.66523e-05
5.12803e-08
1.66529e-05
5.24522e-08
5.28713e-08
1.66539e-05
1.80146e-05
-2.94483e-09
1.80143e-05
-1.00629e-08
1.80144e-05
-1.28213e-08
1.80122e-05
-6.75223e-09
1.80087e-05
-1.38552e-09
1.80065e-05
3.5556e-09
1.80038e-05
1.05277e-08
1.79993e-05
1.6486e-08
1.79947e-05
1.95956e-08
1.79921e-05
2.33449e-08
1.79912e-05
2.90151e-08
1.79901e-05
3.52446e-08
1.79881e-05
3.92415e-08
1.79862e-05
4.20946e-08
1.7985e-05
4.51091e-08
1.79845e-05
4.76207e-08
1.79846e-05
4.96392e-08
1.79849e-05
5.09218e-08
1.79857e-05
5.16371e-08
5.17554e-08
1.79869e-05
1.94527e-05
-2.94712e-09
1.9452e-05
-9.3593e-09
1.94509e-05
-1.1744e-08
1.94496e-05
-5.41941e-09
1.9446e-05
2.14469e-09
1.94424e-05
7.22687e-09
1.944e-05
1.28948e-08
1.94372e-05
1.92865e-08
1.94332e-05
2.35548e-08
1.94298e-05
2.67648e-08
1.94281e-05
3.07429e-08
1.94272e-05
3.61676e-08
1.94261e-05
4.02986e-08
1.94248e-05
4.33811e-08
1.94239e-05
4.60494e-08
1.94235e-05
4.79846e-08
1.94237e-05
4.94611e-08
1.94243e-05
5.03535e-08
1.94253e-05
5.06505e-08
5.04964e-08
1.94265e-05
2.10056e-05
-2.71792e-09
2.10046e-05
-8.42942e-09
2.10025e-05
-9.57245e-09
2.10008e-05
-3.72504e-09
2.09983e-05
4.58877e-09
2.09945e-05
1.10898e-08
2.09913e-05
1.6038e-08
2.09891e-05
2.15583e-08
2.09863e-05
2.62779e-08
2.09832e-05
2.98735e-08
2.09808e-05
3.31269e-08
2.09797e-05
3.72715e-08
2.0979e-05
4.10789e-08
2.09784e-05
4.39571e-08
2.09778e-05
4.65861e-08
2.09777e-05
4.80984e-08
2.09781e-05
4.91088e-08
2.09788e-05
4.96023e-08
2.098e-05
4.95329e-08
4.90738e-08
2.09814e-05
2.26825e-05
-2.32496e-09
2.26813e-05
-7.15819e-09
2.26787e-05
-6.96533e-09
2.2676e-05
-1.05983e-09
2.26739e-05
6.71994e-09
2.26709e-05
1.40179e-08
2.26675e-05
1.94505e-08
2.2665e-05
2.40276e-08
2.2663e-05
2.83568e-08
2.26606e-05
3.22505e-08
2.26584e-05
3.53204e-08
2.26569e-05
3.87383e-08
2.26563e-05
4.16709e-08
2.2656e-05
4.42728e-08
2.26561e-05
4.65079e-08
2.26563e-05
4.79343e-08
2.26569e-05
4.84929e-08
2.26579e-05
4.86231e-08
2.26591e-05
4.82972e-08
4.75183e-08
2.26607e-05
2.44934e-05
-1.79385e-09
2.44916e-05
-5.33437e-09
2.44889e-05
-4.23247e-09
2.44858e-05
2.04227e-09
2.44832e-05
9.23838e-09
2.4481e-05
1.62099e-08
2.44782e-05
2.23296e-08
2.44755e-05
2.66711e-08
2.44735e-05
3.03398e-08
2.44718e-05
3.40035e-08
2.44701e-05
3.70404e-08
2.44688e-05
4.00189e-08
2.44681e-05
4.2329e-08
2.44681e-05
4.42761e-08
2.44685e-05
4.61732e-08
2.44691e-05
4.72997e-08
2.447e-05
4.76207e-08
2.44712e-05
4.74142e-08
2.44726e-05
4.68728e-08
4.5864e-08
2.44743e-05
2.64489e-05
-1.1437e-09
2.64467e-05
-3.10035e-09
2.64437e-05
-1.27895e-09
2.64406e-05
5.19038e-09
2.64377e-05
1.20939e-08
2.64356e-05
1.83766e-08
2.64334e-05
2.44672e-08
2.64311e-05
2.90257e-08
2.64291e-05
3.22636e-08
2.64276e-05
3.54994e-08
2.64265e-05
3.81978e-08
2.64256e-05
4.08909e-08
2.64251e-05
4.2838e-08
2.64253e-05
4.41082e-08
2.64259e-05
4.55712e-08
2.64269e-05
4.62847e-08
2.6428e-05
4.64795e-08
2.64295e-05
4.59936e-08
2.64311e-05
4.52137e-08
4.40881e-08
2.64329e-05
2.85605e-05
-3.74315e-10
2.85581e-05
-6.56629e-10
2.85548e-05
2.00922e-09
2.85518e-05
8.25244e-09
2.85488e-05
1.50045e-08
2.85465e-05
2.06807e-08
2.85448e-05
2.62224e-08
2.85429e-05
3.08774e-08
2.85413e-05
3.39359e-08
2.854e-05
3.67603e-08
2.85392e-05
3.8998e-08
2.85388e-05
4.12657e-08
2.85387e-05
4.29891e-08
2.8539e-05
4.37331e-08
2.85399e-05
4.47068e-08
2.85412e-05
4.49973e-08
2.85427e-05
4.50205e-08
2.85443e-05
4.43616e-08
2.85462e-05
4.33411e-08
4.21538e-08
2.85481e-05
3.08408e-05
4.92819e-10
3.08383e-05
1.89805e-09
3.08348e-05
5.42393e-09
3.08317e-05
1.1356e-08
3.08289e-05
1.77937e-08
3.08266e-05
2.30184e-08
3.08249e-05
2.79363e-08
3.08235e-05
3.22567e-08
3.08222e-05
3.52301e-08
3.08213e-05
3.76585e-08
3.08208e-05
3.95304e-08
3.08209e-05
4.1207e-08
3.08212e-05
4.26818e-08
3.08218e-05
4.30754e-08
3.0823e-05
4.35542e-08
3.08244e-05
4.35519e-08
3.08262e-05
4.32065e-08
3.08281e-05
4.25124e-08
3.08301e-05
4.12949e-08
4.00295e-08
3.08322e-05
3.33032e-05
1.41118e-09
3.33006e-05
4.44271e-09
3.32972e-05
8.84083e-09
3.3294e-05
1.45457e-08
3.32914e-05
2.04721e-08
3.32891e-05
2.52289e-08
3.32875e-05
2.95684e-08
3.32864e-05
3.33949e-08
3.32855e-05
3.61064e-08
3.3285e-05
3.81834e-08
3.32848e-05
3.97004e-08
3.32852e-05
4.08017e-08
3.3286e-05
4.19395e-08
3.32869e-05
4.20942e-08
3.32884e-05
4.21064e-08
3.329e-05
4.18945e-08
3.32921e-05
4.11539e-08
3.32942e-05
4.04122e-08
3.32964e-05
3.9079e-08
3.76996e-08
3.32987e-05
3.59622e-05
2.33139e-09
3.59597e-05
6.91312e-09
3.59565e-05
1.21184e-08
3.59533e-05
1.77079e-08
3.59507e-05
2.30743e-08
3.59486e-05
2.73347e-08
3.59471e-05
3.10453e-08
3.59462e-05
3.43364e-08
3.59457e-05
3.66182e-08
3.59455e-05
3.83737e-08
3.59457e-05
3.9449e-08
3.59464e-05
4.01298e-08
3.59475e-05
4.08207e-08
3.59489e-05
4.07544e-08
3.59506e-05
4.03749e-08
3.59525e-05
3.99313e-08
3.59547e-05
3.89675e-08
3.59572e-05
3.79769e-08
3.59595e-05
3.67073e-08
3.51684e-08
3.59621e-05
3.88336e-05
3.2074e-09
3.88312e-05
9.25188e-09
3.88282e-05
1.51571e-08
3.88252e-05
2.07148e-08
3.88227e-05
2.55576e-08
3.88207e-05
2.93149e-08
3.88194e-05
3.24008e-08
3.88187e-05
3.50271e-08
3.88184e-05
3.68806e-08
3.88186e-05
3.82158e-08
3.88191e-05
3.8881e-08
3.88201e-05
3.91648e-08
3.88216e-05
3.93673e-08
3.88233e-05
3.90661e-08
3.88252e-05
3.83841e-08
3.88275e-05
3.76735e-08
3.88299e-05
3.65993e-08
3.88325e-05
3.5357e-08
3.88352e-05
3.40007e-08
3.25353e-08
3.88378e-05
4.19342e-05
4.00385e-09
4.19321e-05
1.13693e-08
4.19294e-05
1.78725e-08
4.19267e-05
2.3431e-08
4.19244e-05
2.785e-08
4.19226e-05
3.11244e-08
4.19214e-05
3.36055e-08
4.19208e-05
3.55693e-08
4.19208e-05
3.68998e-08
4.19212e-05
3.7815e-08
4.19221e-05
3.80276e-08
4.19233e-05
3.79158e-08
4.1925e-05
3.76723e-08
4.1927e-05
3.70405e-08
4.19292e-05
3.6185e-08
4.19318e-05
3.51427e-08
4.19344e-05
3.40116e-08
4.19371e-05
3.25919e-08
4.194e-05
3.11595e-08
2.95822e-08
4.19429e-05
4.52825e-05
4.68082e-09
4.52807e-05
1.31623e-08
4.52784e-05
2.01633e-08
4.52761e-05
2.57116e-08
4.52742e-05
2.98106e-08
4.52726e-05
3.26725e-08
4.52715e-05
3.46998e-08
4.5271e-05
3.60637e-08
4.52712e-05
3.67578e-08
4.52717e-05
3.72372e-08
4.52728e-05
3.70179e-08
4.52743e-05
3.63741e-08
4.52761e-05
3.58256e-08
4.52785e-05
3.47286e-08
4.52808e-05
3.38102e-08
4.52835e-05
3.24378e-08
4.52864e-05
3.11017e-08
4.52894e-05
2.96249e-08
4.52925e-05
2.80673e-08
2.65538e-08
4.52955e-05
4.88981e-05
5.20811e-09
4.88967e-05
1.44974e-08
4.8895e-05
2.1912e-08
4.88933e-05
2.74279e-08
4.88918e-05
3.12904e-08
4.88907e-05
3.37815e-08
4.88899e-05
3.55128e-08
4.88893e-05
3.66412e-08
4.88894e-05
3.66671e-08
4.88901e-05
3.65505e-08
4.88911e-05
3.60368e-08
4.88927e-05
3.47129e-08
4.88947e-05
3.38636e-08
4.88971e-05
3.23518e-08
4.88998e-05
3.10865e-08
4.89026e-05
2.96281e-08
4.89058e-05
2.79374e-08
4.89089e-05
2.64617e-08
4.89123e-05
2.47167e-08
2.32711e-08
4.89155e-05
5.28024e-05
5.53921e-09
5.28017e-05
1.52112e-08
5.28006e-05
2.29653e-08
5.27996e-05
2.8447e-08
5.27987e-05
3.22092e-08
5.27981e-05
3.43323e-08
5.27979e-05
3.56934e-08
5.27979e-05
3.66904e-08
5.27977e-05
3.68891e-08
5.2798e-05
3.62592e-08
5.27987e-05
3.52793e-08
5.28e-05
3.34182e-08
5.28019e-05
3.19923e-08
5.28039e-05
3.03418e-08
5.28068e-05
2.82052e-08
5.28099e-05
2.64584e-08
5.28135e-05
2.43789e-08
5.28169e-05
2.30933e-08
5.28203e-05
2.12498e-08
1.96165e-08
5.2824e-05
5.70185e-05
5.59407e-09
5.70185e-05
1.52078e-08
5.70184e-05
2.30155e-08
5.70183e-05
2.85239e-08
5.70181e-05
3.24139e-08
5.70181e-05
3.4339e-08
5.70184e-05
3.54112e-08
5.70193e-05
3.5852e-08
5.70202e-05
3.59266e-08
5.70208e-05
3.56384e-08
5.7021e-05
3.51115e-08
5.7021e-05
3.34417e-08
5.70217e-05
3.12919e-08
5.70226e-05
2.94687e-08
5.7024e-05
2.67567e-08
5.70266e-05
2.38175e-08
5.70298e-05
2.12504e-08
5.70339e-05
1.89589e-08
5.70382e-05
1.69089e-08
1.49153e-08
5.70429e-05
6.15712e-05
5.34496e-09
6.1572e-05
1.43489e-08
6.15732e-05
2.18379e-08
6.15746e-05
2.71071e-08
6.15759e-05
3.11224e-08
6.15767e-05
3.35863e-08
6.15769e-05
3.51702e-08
6.15773e-05
3.54997e-08
6.15784e-05
3.48277e-08
6.15804e-05
3.35969e-08
6.15832e-05
3.23491e-08
6.15858e-05
3.08395e-08
6.15887e-05
2.83799e-08
6.15917e-05
2.64652e-08
6.15936e-05
2.48274e-08
6.15952e-05
2.22006e-08
6.15969e-05
1.9625e-08
6.1599e-05
1.68394e-08
6.16014e-05
1.45273e-08
1.21394e-08
6.16041e-05
6.64874e-05
4.75369e-09
6.64894e-05
1.23452e-08
6.64919e-05
1.92928e-08
6.64952e-05
2.38485e-08
6.64986e-05
2.77339e-08
6.65021e-05
3.00332e-08
6.65051e-05
3.21743e-08
6.65073e-05
3.32894e-08
6.65075e-05
3.46729e-08
6.65055e-05
3.55933e-08
6.65026e-05
3.5213e-08
6.64996e-05
3.38336e-08
6.64969e-05
3.10917e-08
6.64952e-05
2.81635e-08
6.64949e-05
2.51419e-08
6.64959e-05
2.1265e-08
6.6498e-05
1.75222e-08
6.65014e-05
1.33737e-08
6.65063e-05
9.60819e-09
6.0097e-09
6.65125e-05
7.1796e-05
3.87859e-09
7.17987e-05
9.67641e-09
7.18027e-05
1.52831e-08
7.18076e-05
1.89368e-08
7.18129e-05
2.24228e-08
7.18184e-05
2.45522e-08
7.18238e-05
2.67856e-08
7.1829e-05
2.80527e-08
7.18343e-05
2.94535e-08
7.18396e-05
3.025e-08
7.18442e-05
3.05714e-08
7.18477e-05
3.03621e-08
7.18492e-05
2.96024e-08
7.18499e-05
2.74666e-08
7.18502e-05
2.48041e-08
7.18516e-05
1.98794e-08
7.18535e-05
1.56901e-08
7.18556e-05
1.11895e-08
7.18584e-05
6.88657e-09
3.01208e-09
7.18614e-05
7.75291e-05
7.75332e-05
7.75392e-05
7.75465e-05
7.75549e-05
7.75638e-05
7.75734e-05
7.75832e-05
7.75934e-05
7.76036e-05
7.76138e-05
7.76239e-05
7.76333e-05
7.76417e-05
7.76486e-05
7.76527e-05
7.76552e-05
7.76563e-05
7.76564e-05
7.76559e-05
3.77489e-06
6.89069e-08
3.6809e-06
9.39969e-08
3.58127e-06
9.96309e-08
3.48285e-06
9.84209e-08
3.38467e-06
9.81784e-08
3.28536e-06
9.93107e-08
3.18427e-06
1.01082e-07
3.08135e-06
1.02926e-07
2.9766e-06
1.04751e-07
2.87012e-06
1.06473e-07
2.76184e-06
1.08285e-07
2.6516e-06
1.10242e-07
2.53936e-06
1.1224e-07
2.42527e-06
1.14091e-07
2.30935e-06
1.15913e-07
2.19176e-06
1.17593e-07
2.07275e-06
1.19008e-07
1.95244e-06
1.20315e-07
1.8312e-06
1.21235e-07
1.70967e-06
1.21533e-07
1.58858e-06
1.21088e-07
1.46911e-06
1.19469e-07
1.3534e-06
1.15712e-07
1.24402e-06
1.09379e-07
1.14444e-06
9.95852e-08
1.05823e-06
8.62121e-08
9.8837e-07
6.98556e-08
9.3603e-07
5.234e-08
8.99195e-07
3.68352e-08
8.73775e-07
2.54198e-08
8.55883e-07
1.7892e-08
8.42591e-07
1.32922e-08
8.31939e-07
1.06516e-08
8.22747e-07
9.19226e-09
8.14217e-07
8.53046e-09
8.05774e-07
8.44265e-09
7.96945e-07
8.82897e-09
7.87701e-07
9.24414e-09
7.78043e-07
9.65758e-09
7.6792e-07
1.01235e-08
7.57449e-07
1.04703e-08
7.46624e-07
1.08257e-08
7.35626e-07
1.09976e-08
7.24568e-07
1.10581e-08
7.1362e-07
1.09479e-08
7.02951e-07
1.06696e-08
6.92296e-07
1.06545e-08
6.81822e-07
1.04744e-08
6.71519e-07
1.03027e-08
6.61425e-07
1.00942e-08
6.51761e-07
9.66336e-09
6.4218e-07
9.58127e-09
6.32943e-07
9.2366e-09
6.24162e-07
8.7816e-09
6.15509e-07
8.65269e-09
6.07247e-07
8.26203e-09
5.9924e-07
8.00718e-09
5.91423e-07
7.81703e-09
5.84162e-07
7.26098e-09
5.77064e-07
7.09807e-09
5.70137e-07
6.92668e-09
5.63768e-07
6.36923e-09
5.57568e-07
6.20038e-09
5.51476e-07
6.09128e-09
5.45891e-07
5.58568e-09
5.40693e-07
5.19757e-09
5.35809e-07
4.88417e-09
5.31233e-07
4.57587e-09
5.26605e-07
4.62835e-09
5.22329e-07
4.27618e-09
5.18936e-07
3.3929e-09
5.15565e-07
3.37067e-09
5.1187e-07
3.69503e-09
5.08748e-07
3.12235e-09
5.06244e-07
2.50378e-09
5.03745e-07
2.49839e-09
5.01334e-07
2.41124e-09
4.99186e-07
2.14865e-09
4.9728e-07
1.90576e-09
4.95613e-07
1.66639e-09
4.94055e-07
1.55885e-09
4.92583e-07
1.47156e-09
4.91382e-07
1.20055e-09
4.90338e-07
1.04467e-09
4.89324e-07
1.0133e-09
4.88441e-07
8.83043e-10
4.87729e-07
7.12013e-10
4.87087e-07
6.42342e-10
4.86495e-07
5.92182e-10
4.8602e-07
4.74418e-10
4.85621e-07
3.99003e-10
4.8527e-07
3.50981e-10
4.84982e-07
2.88127e-10
4.84739e-07
2.43167e-10
4.84546e-07
1.92911e-10
4.84368e-07
1.78466e-10
4.84215e-07
1.52855e-10
4.84063e-07
1.52022e-10
4.83831e-07
2.32008e-10
4.58458e-10
4.16496e-06
6.41209e-08
4.16885e-06
9.01083e-08
4.16359e-06
1.04893e-07
4.15365e-06
1.08358e-07
4.14267e-06
1.09164e-07
4.13058e-06
1.11402e-07
4.11634e-06
1.15315e-07
4.09929e-06
1.19978e-07
4.07928e-06
1.24764e-07
4.0562e-06
1.29547e-07
4.03002e-06
1.34468e-07
4.0005e-06
1.39758e-07
3.96745e-06
1.4529e-07
3.93076e-06
1.5079e-07
3.89021e-06
1.56458e-07
3.84573e-06
1.62073e-07
3.79717e-06
1.67571e-07
3.74453e-06
1.72952e-07
3.68758e-06
1.78181e-07
3.62655e-06
1.82564e-07
3.56156e-06
1.86075e-07
3.4929e-06
1.88135e-07
3.42149e-06
1.87124e-07
3.34829e-06
1.82571e-07
3.27493e-06
1.72946e-07
3.2031e-06
1.58049e-07
3.135e-06
1.37953e-07
3.07201e-06
1.15329e-07
3.01504e-06
9.38024e-08
2.96377e-06
7.669e-08
2.9164e-06
6.52628e-08
2.87168e-06
5.80113e-08
2.82861e-06
5.37231e-08
2.78669e-06
5.11156e-08
2.74577e-06
4.94441e-08
2.70545e-06
4.87677e-08
2.66565e-06
4.86323e-08
2.62615e-06
4.87431e-08
2.58706e-06
4.8744e-08
2.5483e-06
4.88812e-08
2.50986e-06
4.89134e-08
2.47181e-06
4.88772e-08
2.43388e-06
4.89268e-08
2.39647e-06
4.84641e-08
2.35986e-06
4.75563e-08
2.32382e-06
4.67106e-08
2.28843e-06
4.60476e-08
2.25363e-06
4.52793e-08
2.21941e-06
4.45167e-08
2.18621e-06
4.32937e-08
2.15381e-06
4.20634e-08
2.12197e-06
4.14206e-08
2.09125e-06
3.99576e-08
2.06155e-06
3.8486e-08
2.0325e-06
3.77008e-08
2.0045e-06
3.62617e-08
1.97752e-06
3.49908e-08
1.95123e-06
3.41054e-08
1.92589e-06
3.26028e-08
1.90167e-06
3.13182e-08
1.87846e-06
3.01283e-08
1.85605e-06
2.87817e-08
1.83431e-06
2.79398e-08
1.8136e-06
2.68062e-08
1.79415e-06
2.50297e-08
1.77567e-06
2.36845e-08
1.7579e-06
2.26469e-08
1.74098e-06
2.14978e-08
1.72499e-06
2.0616e-08
1.71018e-06
1.90873e-08
1.69649e-06
1.70821e-08
1.68329e-06
1.65714e-08
1.67066e-06
1.63283e-08
1.65926e-06
1.45263e-08
1.6489e-06
1.28604e-08
1.6391e-06
1.22949e-08
1.62998e-06
1.15307e-08
1.62167e-06
1.04607e-08
1.61409e-06
9.48369e-09
1.60718e-06
8.58041e-09
1.60083e-06
7.90301e-09
1.59507e-06
7.24044e-09
1.58996e-06
6.30945e-09
1.58535e-06
5.65127e-09
1.58116e-06
5.20302e-09
1.57744e-06
4.6026e-09
1.57418e-06
3.96966e-09
1.57127e-06
3.55772e-09
1.56869e-06
3.17404e-09
1.56645e-06
2.70622e-09
1.56452e-06
2.32888e-09
1.56285e-06
2.02988e-09
1.56142e-06
1.71259e-09
1.56021e-06
1.4563e-09
1.55919e-06
1.21058e-09
1.55833e-06
1.03716e-09
1.5576e-06
8.8914e-10
1.55698e-06
7.72415e-10
1.55637e-06
8.34449e-10
1.38228e-09
4.49778e-06
6.24192e-08
4.50341e-06
8.44778e-08
4.50697e-06
1.01325e-07
4.50645e-06
1.08881e-07
4.50488e-06
1.1073e-07
4.50417e-06
1.12117e-07
4.50417e-06
1.15316e-07
4.50407e-06
1.20073e-07
4.50345e-06
1.25384e-07
4.50209e-06
1.30911e-07
4.49996e-06
1.36602e-07
4.49698e-06
1.42731e-07
4.49296e-06
1.49311e-07
4.48783e-06
1.55924e-07
4.48134e-06
1.62949e-07
4.47344e-06
1.6997e-07
4.46392e-06
1.77091e-07
4.45275e-06
1.84124e-07
4.43972e-06
1.91214e-07
4.42472e-06
1.97564e-07
4.40786e-06
2.02927e-07
4.38893e-06
2.07069e-07
4.36801e-06
2.08045e-07
4.34518e-06
2.05402e-07
4.3206e-06
1.97522e-07
4.29455e-06
1.84099e-07
4.26745e-06
1.65059e-07
4.24012e-06
1.4266e-07
4.21334e-06
1.20578e-07
4.18799e-06
1.02039e-07
4.16353e-06
8.97219e-08
4.1394e-06
8.2138e-08
4.11523e-06
7.78967e-08
4.09061e-06
7.57375e-08
4.06571e-06
7.43451e-08
4.04021e-06
7.42619e-08
4.01425e-06
7.45928e-08
3.98774e-06
7.52553e-08
3.96057e-06
7.59124e-08
3.93295e-06
7.65051e-08
3.90458e-06
7.72772e-08
3.87573e-06
7.77328e-08
3.84615e-06
7.851e-08
3.81588e-06
7.8728e-08
3.78542e-06
7.80145e-08
3.75438e-06
7.77556e-08
3.72304e-06
7.73849e-08
3.69133e-06
7.69864e-08
3.65908e-06
7.67685e-08
3.62693e-06
7.54486e-08
3.59441e-06
7.45804e-08
3.56161e-06
7.42228e-08
3.52898e-06
7.25843e-08
3.49619e-06
7.12817e-08
3.46354e-06
7.03455e-08
3.43106e-06
6.87441e-08
3.39858e-06
6.74703e-08
3.3665e-06
6.61864e-08
3.33447e-06
6.46279e-08
3.30269e-06
6.3105e-08
3.27173e-06
6.10822e-08
3.24103e-06
5.94886e-08
3.21057e-06
5.83972e-08
3.18093e-06
5.64432e-08
3.15189e-06
5.40702e-08
3.12367e-06
5.19013e-08
3.09645e-06
4.98714e-08
3.06955e-06
4.83999e-08
3.04336e-06
4.68007e-08
3.01885e-06
4.3602e-08
2.99538e-06
4.055e-08
2.97223e-06
3.9718e-08
2.95006e-06
3.85052e-08
2.92938e-06
3.51985e-08
2.90988e-06
3.23607e-08
2.89127e-06
3.09123e-08
2.87365e-06
2.91501e-08
2.85719e-06
2.69208e-08
2.8419e-06
2.47741e-08
2.82759e-06
2.28863e-08
2.81423e-06
2.12638e-08
2.80192e-06
1.95507e-08
2.79065e-06
1.75743e-08
2.78023e-06
1.60742e-08
2.77067e-06
1.47676e-08
2.76198e-06
1.32891e-08
2.75412e-06
1.18297e-08
2.74696e-06
1.07173e-08
2.74051e-06
9.62103e-09
2.73474e-06
8.48285e-09
2.72957e-06
7.49216e-09
2.72498e-06
6.62311e-09
2.72092e-06
5.77671e-09
2.71737e-06
5.00094e-09
2.71425e-06
4.33716e-09
2.71158e-06
3.70466e-09
2.70921e-06
3.25645e-09
2.70723e-06
2.74927e-09
2.70543e-06
2.63955e-09
3.12518e-09
4.85867e-06
6.21359e-08
4.86268e-06
8.04669e-08
4.86722e-06
9.67804e-08
4.86855e-06
1.07552e-07
4.86788e-06
1.11403e-07
4.86765e-06
1.12349e-07
4.86825e-06
1.1471e-07
4.86957e-06
1.18752e-07
4.87111e-06
1.23848e-07
4.87255e-06
1.29469e-07
4.87383e-06
1.35327e-07
4.87503e-06
1.41524e-07
4.87608e-06
1.48268e-07
4.877e-06
1.54999e-07
4.87772e-06
1.62237e-07
4.87824e-06
1.6945e-07
4.87852e-06
1.76808e-07
4.87857e-06
1.84077e-07
4.8784e-06
1.91376e-07
4.8779e-06
1.98065e-07
4.8773e-06
2.03534e-07
4.87638e-06
2.07987e-07
4.875e-06
2.09425e-07
4.87295e-06
2.0745e-07
4.86994e-06
2.0053e-07
4.86567e-06
1.88373e-07
4.85968e-06
1.71042e-07
4.85227e-06
1.50076e-07
4.84386e-06
1.28985e-07
4.83538e-06
1.10526e-07
4.82713e-06
9.79687e-08
4.81882e-06
9.04482e-08
4.81042e-06
8.6296e-08
4.80158e-06
8.4572e-08
4.79241e-06
8.35162e-08
4.78286e-06
8.38173e-08
4.77293e-06
8.45175e-08
4.76272e-06
8.54647e-08
4.75198e-06
8.6657e-08
4.74089e-06
8.75898e-08
4.72925e-06
8.89242e-08
4.71709e-06
8.9889e-08
4.70447e-06
9.11357e-08
4.69108e-06
9.21168e-08
4.67729e-06
9.17996e-08
4.66283e-06
9.22156e-08
4.64772e-06
9.24931e-08
4.63219e-06
9.25231e-08
4.61586e-06
9.30935e-08
4.59918e-06
9.21336e-08
4.58194e-06
9.18139e-08
4.56396e-06
9.22052e-08
4.54566e-06
9.08895e-08
4.52673e-06
9.02035e-08
4.50735e-06
8.97326e-08
4.48764e-06
8.84541e-08
4.46729e-06
8.782e-08
4.44667e-06
8.68038e-08
4.42569e-06
8.56093e-08
4.40419e-06
8.46055e-08
4.3827e-06
8.25735e-08
4.36093e-06
8.12581e-08
4.33862e-06
8.07083e-08
4.31627e-06
7.87858e-08
4.29387e-06
7.64745e-08
4.27134e-06
7.44257e-08
4.24912e-06
7.20983e-08
4.22682e-06
7.06991e-08
4.20435e-06
6.92666e-08
4.18258e-06
6.53708e-08
4.16127e-06
6.18604e-08
4.13966e-06
6.13306e-08
4.11838e-06
5.97894e-08
4.09797e-06
5.56028e-08
4.07812e-06
5.22158e-08
4.05865e-06
5.03768e-08
4.03976e-06
4.80447e-08
4.02149e-06
4.51877e-08
4.00401e-06
4.22543e-08
3.9872e-06
3.97009e-08
3.971e-06
3.74575e-08
3.95559e-06
3.49615e-08
3.94107e-06
3.20952e-08
3.92726e-06
2.9889e-08
3.9142e-06
2.78265e-08
3.90196e-06
2.55303e-08
3.89051e-06
2.32773e-08
3.8798e-06
2.1424e-08
3.86985e-06
1.95722e-08
3.86068e-06
1.76515e-08
3.85218e-06
1.59983e-08
3.84442e-06
1.43794e-08
3.83725e-06
1.29485e-08
3.83083e-06
1.14198e-08
3.82488e-06
1.0285e-08
3.81969e-06
8.89496e-09
3.81485e-06
8.09411e-09
3.81075e-06
6.85091e-09
3.80686e-06
6.53097e-09
6.42822e-09
5.24843e-06
6.21179e-08
5.25137e-06
7.75242e-08
5.25534e-06
9.28104e-08
5.25789e-06
1.05002e-07
5.25834e-06
1.10952e-07
5.2581e-06
1.12589e-07
5.25838e-06
1.14436e-07
5.25951e-06
1.17622e-07
5.26116e-06
1.22192e-07
5.26291e-06
1.27719e-07
5.26458e-06
1.33659e-07
5.26627e-06
1.3983e-07
5.26794e-06
1.46597e-07
5.26965e-06
1.53294e-07
5.27138e-06
1.60502e-07
5.27319e-06
1.67648e-07
5.27507e-06
1.74923e-07
5.27709e-06
1.82062e-07
5.27932e-06
1.89142e-07
5.28171e-06
1.95673e-07
5.28448e-06
2.00766e-07
5.28755e-06
2.04919e-07
5.2907e-06
2.06276e-07
5.29377e-06
2.04376e-07
5.29639e-06
1.97916e-07
5.29814e-06
1.86624e-07
5.29845e-06
1.70732e-07
5.29729e-06
1.51233e-07
5.29493e-06
1.31342e-07
5.29215e-06
1.13312e-07
5.28954e-06
1.00577e-07
5.28701e-06
9.29733e-08
5.28462e-06
8.86879e-08
5.28208e-06
8.71127e-08
5.27938e-06
8.6217e-08