/*--------------------------------*- C++ -*----------------------------------*\
  =========                 |
  \\      /  F ield         | OpenFOAM: The Open Source CFD Toolbox
   \\    /   O peration     | Website:  https://openfoam.org
    \\  /    A nd           | Version:  10
     \\/     M anipulation  |
\*---------------------------------------------------------------------------*/
FoamFile
{
    format      ascii;
    class       volVectorField;
    location    "0.8";
    object      U;
}
// * * * * * * * * * * * * * * * * * * * * * * * * * * * * * * * * * * * * * //

dimensions      [0 1 -1 0 0 0 0];

internalField   nonuniform List<vector> 
4800
(
(0.960447 -3.85525e-07 0)
(1.03905 -0.000242342 0)
(0.963936 -9.3903e-05 0)
(1.03508 -0.000179959 0)
(0.967288 0.000418332 0)
(1.03196 -9.92893e-05 0)
(0.970834 0.000335554 0)
(1.02874 -0.000279325 0)
(0.974109 7.98525e-07 0)
(1.02553 -0.000591605 0)
(0.976659 -1.93183e-05 0)
(1.02255 -0.000673925 0)
(0.979101 -7.33171e-05 0)
(1.01962 -0.000604519 0)
(0.981177 -9.85586e-05 0)
(1.01663 -0.000512582 0)
(0.982765 9.35057e-05 0)
(1.01368 -0.000180356 0)
(0.98385 0.000620911 0)
(1.01059 0.00101746 0)
(0.982776 -7.3001e-05 0)
(1.01478 -0.000197349 0)
(0.986613 -0.000106869 0)
(1.01112 -0.000137464 0)
(0.989844 0.000395737 0)
(1.00855 -9.95105e-05 0)
(0.992743 0.000337906 0)
(1.00628 -0.000316867 0)
(0.995029 9.8033e-06 0)
(1.00433 -0.000659924 0)
(0.996285 -2.8707e-05 0)
(1.00283 -0.000756111 0)
(0.997287 -9.10485e-05 0)
(1.00151 -0.000692074 0)
(0.997818 -0.000111799 0)
(1.00018 -0.000554287 0)
(0.997861 0.000189377 0)
(0.998912 9.33965e-05 0)
(0.997586 0.00138477 0)
(0.997519 0.00225478 0)
(0.995974 2.14276e-05 0)
(1.00278 -0.000276326 0)
(0.997298 -2.21554e-05 0)
(1.00145 -0.000211069 0)
(0.998314 0.000391888 0)
(1.00106 -0.00011686 0)
(0.999138 0.000279488 0)
(1.00075 -0.000236393 0)
(0.999778 -6.68845e-05 0)
(1.0004 -0.000458329 0)
(0.999737 -0.000184544 0)
(1.00016 -0.000483398 0)
(0.999741 -0.000288359 0)
(0.999844 -0.00042305 0)
(0.999502 -0.000305863 0)
(0.999295 -0.000203988 0)
(0.998987 0.000109132 0)
(0.998701 0.000704567 0)
(0.99836 0.00163124 0)
(0.997899 0.00262203 0)
(0.999441 -7.43974e-06 0)
(1.00033 -0.000286262 0)
(0.999617 -4.88992e-05 0)
(0.999934 -0.00018257 0)
(0.999863 0.000388541 0)
(1.00021 -7.65562e-05 0)
(1.0001 0.000227556 0)
(1.00033 -0.000174949 0)
(1.0004 -0.000188191 0)
(1.00026 -0.000386869 0)
(1.00018 -0.000293139 0)
(1.00018 -0.000465634 0)
(1.00008 -0.00038712 0)
(0.999966 -0.000421114 0)
(0.999804 -0.000351077 0)
(0.999532 -0.000117084 0)
(0.999339 0.000320296 0)
(0.999097 0.00105636 0)
(0.998793 0.00186357 0)
(0.998364 0.00271513 0)
(0.999971 2.41241e-05 0)
(1.00006 -0.000261464 0)
(0.999944 -4.17365e-05 0)
(0.999834 -0.000143579 0)
(1.00007 0.000279442 0)
(1.00022 -1.5399e-06 0)
(1.00025 9.69394e-05 0)
(1.00037 -6.18195e-05 0)
(1.0005 -0.000272848 0)
(1.00032 -0.000327928 0)
(1.00029 -0.000344772 0)
(1.00025 -0.000447236 0)
(1.00019 -0.000446876 0)
(1.00006 -0.000374559 0)
(0.999938 -0.000299819 0)
(0.999711 0.000112455 0)
(0.999576 0.000696389 0)
(0.999374 0.00137399 0)
(0.99909 0.00204061 0)
(0.998699 0.00279213 0)
(1.00003 4.55548e-06 0)
(1.00004 -0.000254544 0)
(0.999997 -0.000101242 0)
(0.999843 -9.48045e-05 0)
(1.0001 0.000207277 0)
(1.00023 7.04921e-05 0)
(1.0003 1.91633e-05 0)
(1.00039 -3.08414e-05 0)
(1.00051 -0.000301372 0)
(1.00034 -0.000360576 0)
(1.00031 -0.000390383 0)
(1.00027 -0.000471376 0)
(1.00024 -0.000468984 0)
(1.0001 -0.00031752 0)
(1.00002 -0.000133314 0)
(0.999857 0.000438985 0)
(0.999737 0.000982244 0)
(0.999555 0.00155594 0)
(0.999295 0.00213998 0)
(0.998938 0.00282859 0)
(1.00004 1.35195e-05 0)
(1.00004 -0.000220617 0)
(1.00002 -0.000134512 0)
(0.999855 -4.25229e-05 0)
(1.0001 0.000134685 0)
(1.00023 9.9313e-05 0)
(1.00032 -7.39317e-06 0)
(1.00039 -9.88289e-05 0)
(1.0005 -0.000289866 0)
(1.00033 -0.000392512 0)
(1.00032 -0.000421293 0)
(1.00027 -0.000471471 0)
(1.00026 -0.000422183 0)
(1.00015 -0.000189533 0)
(1.00012 0.000186776 0)
(0.999976 0.000685826 0)
(0.999862 0.00116089 0)
(0.999698 0.00164658 0)
(0.999473 0.00220171 0)
(0.999148 0.00284552 0)
(1.00004 1.5809e-06 0)
(1.00004 -0.000173899 0)
(1.00003 -0.00020448 0)
(0.999869 5.19215e-06 0)
(1.00011 9.3132e-05 0)
(1.00022 8.21667e-05 0)
(1.00032 9.04959e-06 0)
(1.00039 -0.00013756 0)
(1.00049 -0.000352699 0)
(1.00033 -0.000401254 0)
(1.00032 -0.000446691 0)
(1.00028 -0.000450166 0)
(1.0003 -0.000327062 0)
(1.00023 5.46943e-05 0)
(1.00022 0.000419289 0)
(1.00008 0.000837505 0)
(0.999979 0.00127393 0)
(0.99984 0.00172731 0)
(0.99965 0.00226773 0)
(0.999355 0.00287604 0)
(1.00004 5.3421e-06 0)
(1.00003 -0.00014739 0)
(1.00004 -0.000228202 0)
(0.999885 -3.24923e-06 0)
(1.00012 0.000116054 0)
(1.00022 8.9602e-06 0)
(1.00031 2.40139e-05 0)
(1.00037 -0.000157069 0)
(1.00048 -0.000379395 0)
(1.00033 -0.000436554 0)
(1.00032 -0.000408224 0)
(1.0003 -0.000394349 0)
(1.00037 -0.000101399 0)
(1.00031 0.000273282 0)
(1.0003 0.000584306 0)
(1.00019 0.00094128 0)
(1.0001 0.00135849 0)
(0.999986 0.00179716 0)
(0.999832 0.00231392 0)
(0.999563 0.00289258 0)
(1.00005 -3.91273e-06 0)
(1.00002 -0.000108385 0)
(1.00005 -0.00023677 0)
(0.999904 -4.6731e-05 0)
(1.00012 0.000122275 0)
(1.00021 -6.73498e-06 0)
(1.0003 -6.17957e-05 0)
(1.00035 -0.00014076 0)
(1.00047 -0.000395228 0)
(1.00034 -0.000469538 0)
(1.00034 -0.000363968 0)
(1.00035 -0.000207263 0)
(1.00044 9.18212e-05 0)
(1.00039 0.000421894 0)
(1.00038 0.000699616 0)
(1.00029 0.00102949 0)
(1.00022 0.00143532 0)
(1.00014 0.00186648 0)
(1.00002 0.00235691 0)
(0.999772 0.00290242 0)
(1.00005 5.64357e-07 0)
(1.00002 -0.000103306 0)
(1.00005 -0.000194542 0)
(0.999921 -0.000128857 0)
(1.00012 0.000105641 0)
(1.0002 -1.07378e-05 0)
(1.0003 -0.000114983 0)
(1.00033 -0.000185754 0)
(1.00044 -0.000349539 0)
(1.00035 -0.000435836 0)
(1.00038 -0.000265687 0)
(1.0004 -3.62883e-06 0)
(1.00051 0.000243893 0)
(1.00046 0.000534625 0)
(1.00046 0.000803725 0)
(1.00039 0.00112497 0)
(1.00035 0.0015249 0)
(1.00029 0.00195396 0)
(1.0002 0.00241779 0)
(0.999982 0.00292511 0)
(1.00005 -5.27047e-06 0)
(1.00001 -9.78625e-05 0)
(1.00005 -0.000156076 0)
(0.999936 -0.000172224 0)
(1.00013 3.5412e-05 0)
(1.00019 1.10254e-05 0)
(1.00028 -0.000128508 0)
(1.00032 -0.000234018 0)
(1.00043 -0.000321479 0)
(1.00036 -0.000310419 0)
(1.00043 -0.000129752 0)
(1.00046 0.000116701 0)
(1.00057 0.000353582 0)
(1.00053 0.000620416 0)
(1.00054 0.000883876 0)
(1.00051 0.00119748 0)
(1.00049 0.00158853 0)
(1.00045 0.00200888 0)
(1.00039 0.00244403 0)
(1.00019 0.00291112 0)
(1.00005 -3.73562e-06 0)
(1.00001 -0.000108779 0)
(1.00004 -0.000128152 0)
(0.999944 -0.000149343 0)
(1.00014 -7.78135e-05 0)
(1.00018 -1.70677e-05 0)
(1.00027 -9.93797e-05 0)
(1.00031 -0.000229641 0)
(1.00044 -0.000297172 0)
(1.0004 -0.000168431 0)
(1.00047 2.84773e-05 0)
(1.00052 0.000217438 0)
(1.00064 0.000434425 0)
(1.00061 0.000699297 0)
(1.00063 0.000965833 0)
(1.00062 0.00127483 0)
(1.00064 0.00165148 0)
(1.00062 0.00205703 0)
(1.00058 0.00246727 0)
(1.0004 0.00289728 0)
(1.00005 -7.46272e-06 0)
(1 -0.000118598 0)
(1.00004 -0.000124897 0)
(0.999943 -0.000103955 0)
(1.00015 -0.000155645 0)
(1.00019 -0.000114172 0)
(1.00026 -8.05032e-05 0)
(1.00029 -0.000148956 0)
(1.00046 -0.000218302 0)
(1.00044 -7.08346e-05 0)
(1.00052 0.000158006 0)
(1.00057 0.000339961 0)
(1.00071 0.000537074 0)
(1.00069 0.00079438 0)
(1.00073 0.00106485 0)
(1.00075 0.00136776 0)
(1.00079 0.00172851 0)
(1.00079 0.00211782 0)
(1.00077 0.00250539 0)
(1.00061 0.00290165 0)
(1.00005 -1.16832e-05 0)
(1 -0.000113385 0)
(1.00005 -0.000153059 0)
(0.999941 -6.06504e-05 0)
(1.00014 -0.000156038 0)
(1.0002 -0.000208771 0)
(1.00027 -0.000118185 0)
(1.00029 -3.62036e-05 0)
(1.00047 -7.27839e-05 0)
(1.00049 1.12851e-05 0)
(1.00059 0.000218332 0)
(1.00063 0.000421907 0)
(1.00078 0.000613143 0)
(1.00078 0.000863577 0)
(1.00083 0.00114017 0)
(1.00088 0.00143695 0)
(1.00095 0.00178043 0)
(1.00097 0.00215186 0)
(1.00096 0.00251627 0)
(1.00081 0.00288277 0)
(1.00005 -1.77344e-05 0)
(0.999998 -9.20837e-05 0)
(1.00006 -0.000196147 0)
(0.999945 -5.75648e-05 0)
(1.00013 -0.000114075 0)
(1.0002 -0.000232832 0)
(1.0003 -0.000191495 0)
(1.00032 1.33256e-05 0)
(1.00048 9.81341e-05 0)
(1.00053 0.000156866 0)
(1.00064 0.000302392 0)
(1.00069 0.000486764 0)
(1.00086 0.00067964 0)
(1.00088 0.000926942 0)
(1.00095 0.00120454 0)
(1.00101 0.00149667 0)
(1.00111 0.00182198 0)
(1.00115 0.0021754 0)
(1.00116 0.00252085 0)
(1.00102 0.00286162 0)
(1.00005 -2.56918e-05 0)
(0.99999 -7.61692e-05 0)
(1.00006 -0.000202616 0)
(0.999955 -0.000110541 0)
(1.00012 -6.03216e-05 0)
(1.00019 -0.000181771 0)
(1.00033 -0.000193264 0)
(1.00037 -1.11467e-05 0)
(1.00052 0.000190832 0)
(1.00056 0.000319742 0)
(1.00069 0.00044081 0)
(1.00076 0.000583769 0)
(1.00094 0.000759288 0)
(1.00098 0.000996739 0)
(1.00107 0.0012669 0)
(1.00115 0.00155217 0)
(1.00128 0.00185818 0)
(1.00134 0.00218825 0)
(1.00136 0.00251523 0)
(1.00123 0.002831 0)
(1.00005 -2.28084e-05 0)
(0.999982 -9.08138e-05 0)
(1.00006 -0.000172596 0)
(0.999971 -0.000164008 0)
(1.00012 -4.95069e-05 0)
(1.00018 -8.96776e-05 0)
(1.00035 -0.000116203 0)
(1.00042 -1.04477e-05 0)
(1.00058 0.000185419 0)
(1.00061 0.000390977 0)
(1.00074 0.000548202 0)
(1.00081 0.000689951 0)
(1.00102 0.000843802 0)
(1.00109 0.00106578 0)
(1.0012 0.0013244 0)
(1.0013 0.00159995 0)
(1.00145 0.00188759 0)
(1.00152 0.00219219 0)
(1.00155 0.00249967 0)
(1.00143 0.00279325 0)
(1.00005 -2.49112e-05 0)
(0.999978 -0.000106243 0)
(1.00005 -0.000153872 0)
(0.999982 -0.000160612 0)
(1.00014 -8.55935e-05 0)
(1.00019 -1.48216e-05 0)
(1.00036 3.29073e-07 0)
(1.00046 6.37068e-05 0)
(1.00065 0.000198319 0)
(1.00068 0.000398411 0)
(1.0008 0.000605463 0)
(1.00087 0.000780709 0)
(1.0011 0.000935308 0)
(1.0012 0.00114058 0)
(1.00133 0.00138472 0)
(1.00145 0.00164663 0)
(1.00161 0.00191633 0)
(1.00171 0.00219608 0)
(1.00176 0.00248166 0)
(1.00164 0.00275324 0)
(1.00005 -2.51083e-05 0)
(0.999976 -0.000115419 0)
(1.00006 -0.000153059 0)
(0.999991 -0.000127228 0)
(1.00016 -8.76864e-05 0)
(1.00022 9.36879e-06 0)
(1.00038 0.000101155 0)
(1.00049 0.000181281 0)
(1.0007 0.000268538 0)
(1.00076 0.000424032 0)
(1.00089 0.000630975 0)
(1.00095 0.00083646 0)
(1.00118 0.00100675 0)
(1.00131 0.00120612 0)
(1.00146 0.00143988 0)
(1.0016 0.00168606 0)
(1.00178 0.00194007 0)
(1.0019 0.00219604 0)
(1.00196 0.0024584 0)
(1.00184 0.00270728 0)
(1.00005 -2.86254e-05 0)
(0.999974 -0.000111655 0)
(1.00007 -0.000157821 0)
(1.00001 -9.88997e-05 0)
(1.00018 -4.24685e-05 0)
(1.00025 2.91972e-05 0)
(1.00042 0.000149072 0)
(1.00053 0.000268654 0)
(1.00074 0.000358143 0)
(1.00083 0.000483704 0)
(1.00098 0.000660564 0)
(1.00105 0.000870619 0)
(1.00128 0.00105506 0)
(1.00143 0.00125391 0)
(1.0016 0.00148296 0)
(1.00176 0.00171311 0)
(1.00195 0.00195177 0)
(1.00209 0.00218643 0)
(1.00216 0.00242486 0)
(1.00205 0.00265425 0)
(1.00005 -3.10275e-05 0)
(0.999971 -0.000102691 0)
(1.00008 -0.000151345 0)
(1.00003 -8.08439e-05 0)
(1.0002 9.36874e-06 0)
(1.00028 8.396e-05 0)
(1.00047 0.000192133 0)
(1.00058 0.000318783 0)
(1.0008 0.000433249 0)
(1.0009 0.000551453 0)
(1.00107 0.000706041 0)
(1.00115 0.000902062 0)
(1.00139 0.00108986 0)
(1.00156 0.00128298 0)
(1.00175 0.00150797 0)
(1.00192 0.00172827 0)
(1.00213 0.00195045 0)
(1.00227 0.00216819 0)
(1.00235 0.00238172 0)
(1.00225 0.0025934 0)
(1.00005 -2.72376e-05 0)
(0.99997 -9.85902e-05 0)
(1.00009 -0.000125404 0)
(1.00006 -6.45424e-05 0)
(1.00024 4.77975e-05 0)
(1.00032 0.00014859 0)
(1.00052 0.000245692 0)
(1.00063 0.000368467 0)
(1.00085 0.000489219 0)
(1.00097 0.000617978 0)
(1.00116 0.000759802 0)
(1.00126 0.000943082 0)
(1.0015 0.00112568 0)
(1.00169 0.00130798 0)
(1.0019 0.00151996 0)
(1.00208 0.00173318 0)
(1.0023 0.00193859 0)
(1.00245 0.00214105 0)
(1.00255 0.00233308 0)
(1.00245 0.00252531 0)
(1.00005 -2.61475e-05 0)
(0.999971 -8.53298e-05 0)
(1.0001 -9.8132e-05 0)
(1.00009 -3.23427e-05 0)
(1.00028 7.65725e-05 0)
(1.00036 0.000192776 0)
(1.00057 0.000303919 0)
(1.00069 0.000418751 0)
(1.00092 0.000537242 0)
(1.00104 0.000669024 0)
(1.00125 0.000810727 0)
(1.00136 0.000979119 0)
(1.00162 0.0011546 0)
(1.00182 0.00132839 0)
(1.00205 0.001521 0)
(1.00224 0.00172279 0)
(1.00247 0.00191539 0)
(1.00263 0.00210106 0)
(1.00274 0.00227814 0)
(1.00265 0.0024491 0)
(1.00005 -1.95241e-05 0)
(0.999973 -7.00036e-05 0)
(1.00011 -6.79017e-05 0)
(1.00012 6.72683e-06 0)
(1.00032 0.00011033 0)
(1.00041 0.000228099 0)
(1.00062 0.000352093 0)
(1.00075 0.000469647 0)
(1.00098 0.000582267 0)
(1.00112 0.000708269 0)
(1.00134 0.000850422 0)
(1.00147 0.00101239 0)
(1.00174 0.00117459 0)
(1.00195 0.00134335 0)
(1.0022 0.00151994 0)
(1.00241 0.00170185 0)
(1.00264 0.00188532 0)
(1.00281 0.00205211 0)
(1.00292 0.00221582 0)
(1.00283 0.00236683 0)
(1.00005 -1.53272e-05 0)
(0.999976 -4.63443e-05 0)
(1.00013 -3.3857e-05 0)
(1.00015 4.75652e-05 0)
(1.00036 0.0001517 0)
(1.00046 0.000263675 0)
(1.00068 0.000387529 0)
(1.00081 0.000510538 0)
(1.00105 0.0006269 0)
(1.0012 0.000746669 0)
(1.00144 0.000878777 0)
(1.00158 0.00103944 0)
(1.00185 0.00119054 0)
(1.00208 0.00134494 0)
(1.00235 0.00151285 0)
(1.00257 0.00167215 0)
(1.00281 0.00184447 0)
(1.00298 0.00199559 0)
(1.00309 0.00214343 0)
(1.00301 0.00227982 0)
(1.00005 -7.67313e-06 0)
(0.999979 -2.03467e-05 0)
(1.00015 4.50054e-06 0)
(1.00019 8.54277e-05 0)
(1.0004 0.000192015 0)
(1.00051 0.000299351 0)
(1.00073 0.000420816 0)
(1.00087 0.000542815 0)
(1.00112 0.000661333 0)
(1.00127 0.000782077 0)
(1.00153 0.000901128 0)
(1.00169 0.00105084 0)
(1.00196 0.00120072 0)
(1.00221 0.00133627 0)
(1.00249 0.00149485 0)
(1.00272 0.00163784 0)
(1.00297 0.00179142 0)
(1.00314 0.00193172 0)
(1.00326 0.0020609 0)
(1.00318 0.00218651 0)
(1.00005 4.73255e-07 0)
(0.999983 6.92391e-06 0)
(1.00017 4.39845e-05 0)
(1.00022 0.000126476 0)
(1.00044 0.000231354 0)
(1.00056 0.000335913 0)
(1.00079 0.000451229 0)
(1.00093 0.000571802 0)
(1.00118 0.000684764 0)
(1.00134 0.000805572 0)
(1.00162 0.000920487 0)
(1.00179 0.00105165 0)
(1.00207 0.00119734 0)
(1.00233 0.0013208 0)
(1.00263 0.00146271 0)
(1.00286 0.00159559 0)
(1.00313 0.0017267 0)
(1.00329 0.00185672 0)
(1.00342 0.00196876 0)
(1.00334 0.00208283 0)
(1.00006 9.38076e-06 0)
(0.999987 3.45993e-05 0)
(1.00018 8.53066e-05 0)
(1.00024 0.000167918 0)
(1.00048 0.000269519 0)
(1.0006 0.000371131 0)
(1.00084 0.000479108 0)
(1.00099 0.000595068 0)
(1.00125 0.000705552 0)
(1.00142 0.000818791 0)
(1.0017 0.000930837 0)
(1.00189 0.00104901 0)
(1.00218 0.00118109 0)
(1.00245 0.00129615 0)
(1.00275 0.00141907 0)
(1.00299 0.00154166 0)
(1.00327 0.00165357 0)
(1.00344 0.00177021 0)
(1.00356 0.001869 0)
(1.00348 0.00196915 0)
(1.00006 1.86941e-05 0)
(0.999991 6.18282e-05 0)
(1.00019 0.000125006 0)
(1.00027 0.00020937 0)
(1.00051 0.000306912 0)
(1.00064 0.000405528 0)
(1.00089 0.000507994 0)
(1.00104 0.000614348 0)
(1.00131 0.00072058 0)
(1.00148 0.000827466 0)
(1.00177 0.000929865 0)
(1.00198 0.0010375 0)
(1.00228 0.0011556 0)
(1.00255 0.00125974 0)
(1.00286 0.00136598 0)
(1.00311 0.00147609 0)
(1.00339 0.00157255 0)
(1.00356 0.00167354 0)
(1.00369 0.00176075 0)
(1.00361 0.00184617 0)
(1.00006 2.75721e-05 0)
(0.999994 8.81751e-05 0)
(1.0002 0.000162443 0)
(1.00028 0.000249585 0)
(1.00053 0.000344227 0)
(1.00067 0.000437519 0)
(1.00093 0.000533164 0)
(1.00109 0.000632245 0)
(1.00136 0.0007287 0)
(1.00154 0.000828451 0)
(1.00184 0.000922756 0)
(1.00206 0.00101572 0)
(1.00236 0.00111983 0)
(1.00263 0.00121361 0)
(1.00296 0.0013028 0)
(1.00321 0.00139881 0)
(1.0035 0.00148214 0)
(1.00368 0.00156624 0)
(1.0038 0.00164294 0)
(1.00373 0.00171387 0)
(1.00006 3.59944e-05 0)
(0.999997 0.000112356 0)
(1.00021 0.000196722 0)
(1.0003 0.000286828 0)
(1.00055 0.000378752 0)
(1.00069 0.000467297 0)
(1.00096 0.000555242 0)
(1.00112 0.000646101 0)
(1.0014 0.000734014 0)
(1.00159 0.000821828 0)
(1.00189 0.000907089 0)
(1.00212 0.000989 0)
(1.00243 0.00107346 0)
(1.0027 0.00115614 0)
(1.00304 0.00123004 0)
(1.0033 0.00130717 0)
(1.00358 0.00138041 0)
(1.00377 0.00144594 0)
(1.00389 0.0015121 0)
(1.00382 0.00156941 0)
(1.00006 4.33273e-05 0)
(0.999999 0.000133832 0)
(1.00022 0.000226494 0)
(1.00031 0.00031944 0)
(1.00056 0.000408738 0)
(1.0007 0.000493369 0)
(1.00098 0.000575754 0)
(1.00115 0.000656598 0)
(1.00143 0.000735404 0)
(1.00162 0.000813591 0)
(1.00193 0.00088316 0)
(1.00216 0.000954189 0)
(1.00248 0.0010236 0)
(1.00275 0.00108616 0)
(1.00309 0.00114932 0)
(1.00336 0.0012042 0)
(1.00364 0.0012652 0)
(1.00383 0.00131474 0)
(1.00396 0.00136488 0)
(1.00389 0.00141142 0)
(1.00006 4.92347e-05 0)
(1 0.000151176 0)
(1.00022 0.000250736 0)
(1.00031 0.000345606 0)
(1.00056 0.000434138 0)
(1.00071 0.000514351 0)
(1.00099 0.000591019 0)
(1.00116 0.000665335 0)
(1.00145 0.000732847 0)
(1.00164 0.000804033 0)
(1.00194 0.000862469 0)
(1.00219 0.000912502 0)
(1.0025 0.000974534 0)
(1.00278 0.00101496 0)
(1.00312 0.00106131 0)
(1.00339 0.00109904 0)
(1.00368 0.00113714 0)
(1.00386 0.00117581 0)
(1.004 0.00120335 0)
(1.00392 0.0012398 0)
(1.00006 5.3506e-05 0)
(1 0.000162069 0)
(1.00022 0.000267685 0)
(1.00031 0.000363489 0)
(1.00056 0.000452404 0)
(1.00071 0.000528714 0)
(1.00099 0.000599688 0)
(1.00117 0.000669682 0)
(1.00146 0.000728758 0)
(1.00165 0.000788277 0)
(1.00194 0.000846823 0)
(1.00219 0.000876482 0)
(1.00251 0.000925208 0)
(1.00277 0.000955616 0)
(1.00312 0.000975177 0)
(1.00338 0.00100053 0)
(1.00368 0.00100946 0)
(1.00385 0.00103196 0)
(1.00399 0.00103614 0)
(1.00392 0.00105235 0)
(1.00006 5.57916e-05 0)
(1 0.00016586 0)
(1.00022 0.00027401 0)
(1.00031 0.000370388 0)
(1.00056 0.000459879 0)
(1.0007 0.00053527 0)
(1.00099 0.000602944 0)
(1.00116 0.000665752 0)
(1.00145 0.000722105 0)
(1.00165 0.000765993 0)
(1.00193 0.000823348 0)
(1.00217 0.000849911 0)
(1.00249 0.000877378 0)
(1.00273 0.000908801 0)
(1.00307 0.000909176 0)
(1.00333 0.000919536 0)
(1.00362 0.000908106 0)
(1.00379 0.000901819 0)
(1.00392 0.000885629 0)
(1.00386 0.000865472 0)
(1.00006 5.4169e-05 0)
(1 0.000161512 0)
(1.00022 0.00026682 0)
(1.0003 0.000361452 0)
(1.00055 0.00044992 0)
(1.00069 0.000528273 0)
(1.00098 0.000598379 0)
(1.00115 0.000660298 0)
(1.00143 0.000719609 0)
(1.00164 0.000754952 0)
(1.00192 0.000793985 0)
(1.00213 0.000819849 0)
(1.00246 0.000817556 0)
(1.00269 0.00083227 0)
(1.003 0.00082092 0)
(1.00324 0.000807358 0)
(1.0035 0.000788263 0)
(1.00366 0.000759481 0)
(1.00375 0.000740003 0)
(1.00368 0.000705761 0)
(1.00006 5.08769e-05 0)
(1 0.000146076 0)
(1.00022 0.00024425 0)
(1.00031 0.00032847 0)
(1.00056 0.000411322 0)
(1.0007 0.000482872 0)
(1.00098 0.000555167 0)
(1.00115 0.000616518 0)
(1.00142 0.000685209 0)
(1.00161 0.000734337 0)
(1.00188 0.000774163 0)
(1.00206 0.000810914 0)
(1.00237 0.000809122 0)
(1.00259 0.000797089 0)
(1.00288 0.000770249 0)
(1.00311 0.000710771 0)
(1.00336 0.000649639 0)
(1.00352 0.000561943 0)
(1.00362 0.00048305 0)
(1.00356 0.00039141 0)
(1.00006 4.68236e-05 0)
(1.00001 0.000130562 0)
(1.00022 0.000225847 0)
(1.00031 0.000304726 0)
(1.00055 0.000391162 0)
(1.0007 0.000463645 0)
(1.00098 0.000547905 0)
(1.00117 0.000620861 0)
(1.00145 0.000707968 0)
(1.00163 0.000788519 0)
(1.0019 0.000863481 0)
(1.00206 0.000930316 0)
(1.0023 0.00098031 0)
(1.00247 0.000987111 0)
(1.00267 0.000977143 0)
(1.0028 0.000906627 0)
(1.00296 0.000802521 0)
(1.00303 0.000641428 0)
(1.00307 0.000449301 0)
(1.00297 0.000231269 0)
(1.00006 2.20007e-05 0)
(1.00001 6.28032e-05 0)
(1.00023 0.000111471 0)
(1.00032 0.000152395 0)
(1.00058 0.000199789 0)
(1.00074 0.00024097 0)
(1.00103 0.000289522 0)
(1.00123 0.000334222 0)
(1.00153 0.000383713 0)
(1.00172 0.000432605 0)
(1.00199 0.000479967 0)
(1.00215 0.000520724 0)
(1.00235 0.000562174 0)
(1.00245 0.000579123 0)
(1.00255 0.000586701 0)
(1.00252 0.000561377 0)
(1.00247 0.000508086 0)
(1.0023 0.000417756 0)
(1.00211 0.000297856 0)
(1.00184 0.000158369 0)
(0.984662 0.00226582 0)
(0.960457 0.00336473 0)
(0.936004 0.00371077 0)
(0.91114 0.00367883 0)
(0.88591 0.00359033 0)
(0.860342 0.00354907 0)
(0.834408 0.00353695 0)
(0.808067 0.00352202 0)
(0.781287 0.00349569 0)
(0.754062 0.00345409 0)
(0.726425 0.00340971 0)
(0.698274 0.00336828 0)
(0.669581 0.00332455 0)
(0.640379 0.00327412 0)
(0.61072 0.00322395 0)
(0.580582 0.00316264 0)
(0.550071 0.0030939 0)
(0.519177 0.00302649 0)
(0.487971 0.0029408 0)
(0.456603 0.00283325 0)
(0.425251 0.00271171 0)
(0.39405 0.00255637 0)
(0.363522 0.00234788 0)
(0.334188 0.00206331 0)
(0.306937 0.0016557 0)
(0.282746 0.00115169 0)
(0.262552 0.00056391 0)
(0.247054 5.17756e-05 0)
(0.236027 -0.000285671 0)
(0.228394 -0.000448852 0)
(0.222976 -0.00050164 0)
(0.219019 -0.00047658 0)
(0.215951 -0.000442558 0)
(0.213381 -0.000395603 0)
(0.211118 -0.000343 0)
(0.208928 -0.000287269 0)
(0.20671 -0.000235583 0)
(0.204379 -0.000192676 0)
(0.201943 -0.000153525 0)
(0.199393 -0.000120412 0)
(0.196735 -9.18643e-05 0)
(0.193986 -6.98411e-05 0)
(0.191173 -5.35091e-05 0)
(0.188315 -3.71363e-05 0)
(0.185494 -2.78871e-05 0)
(0.18269 -2.13066e-05 0)
(0.179943 -1.14437e-05 0)
(0.177221 -6.35454e-06 0)
(0.17453 9.56245e-07 0)
(0.171907 6.12306e-06 0)
(0.16936 5.63829e-06 0)
(0.16686 1.14402e-05 0)
(0.164455 1.42827e-05 0)
(0.162117 1.32898e-05 0)
(0.159873 1.67171e-05 0)
(0.157689 1.8611e-05 0)
(0.155593 1.83283e-05 0)
(0.153549 1.79565e-05 0)
(0.151612 1.832e-05 0)
(0.149743 2.1369e-05 0)
(0.14796 1.98215e-05 0)
(0.146228 1.56706e-05 0)
(0.144609 1.77118e-05 0)
(0.143018 1.95334e-05 0)
(0.141531 1.67253e-05 0)
(0.140122 1.38681e-05 0)
(0.13884 1.29717e-05 0)
(0.137598 1.32683e-05 0)
(0.136425 1.46262e-05 0)
(0.135274 1.21375e-05 0)
(0.134305 7.22887e-06 0)
(0.133396 9.076e-06 0)
(0.132513 1.16465e-05 0)
(0.131621 8.08251e-06 0)
(0.130915 5.30105e-06 0)
(0.130242 6.23428e-06 0)
(0.129641 6.08954e-06 0)
(0.129023 4.95138e-06 0)
(0.128533 4.12702e-06 0)
(0.128041 3.36569e-06 0)
(0.127657 3.25358e-06 0)
(0.127234 3.12015e-06 0)
(0.126929 2.0979e-06 0)
(0.126598 1.72564e-06 0)
(0.126375 1.91322e-06 0)
(0.12609 1.4799e-06 0)
(0.125929 9.02751e-07 0)
(0.125708 8.8728e-07 0)
(0.125597 9.02447e-07 0)
(0.125411 5.33396e-07 0)
(0.12535 4.11592e-07 0)
(0.125201 3.84311e-07 0)
(0.125174 2.65214e-07 0)
(0.12505 2.29007e-07 0)
(0.125052 1.43943e-07 0)
(0.124944 2.42804e-07 0)
(0.124967 1.88409e-07 0)
(0.124855 3.64376e-07 0)
(0.124896 9.35563e-07 0)
(0.124691 1.56791e-06 0)
(0.997062 0.0041375 0)
(0.996093 0.00580022 0)
(0.994765 0.00645022 0)
(0.993029 0.00644796 0)
(0.990939 0.0063117 0)
(0.988309 0.00626422 0)
(0.985166 0.0063063 0)
(0.981377 0.00637764 0)
(0.976948 0.00644745 0)
(0.971843 0.00650257 0)
(0.966014 0.00655415 0)
(0.959442 0.00661171 0)
(0.951966 0.0066716 0)
(0.943677 0.00672236 0)
(0.934439 0.00676729 0)
(0.924313 0.00680661 0)
(0.913205 0.00682865 0)
(0.901102 0.00684581 0)
(0.888021 0.00685101 0)
(0.873853 0.00682874 0)
(0.858824 0.00677712 0)
(0.84268 0.00667713 0)
(0.825865 0.00651288 0)
(0.808339 0.00623793 0)
(0.790642 0.00579082 0)
(0.773156 0.00516632 0)
(0.756399 0.00437737 0)
(0.741006 0.00353734 0)
(0.726974 0.00275416 0)
(0.714335 0.00213844 0)
(0.70258 0.001702 0)
(0.691474 0.00141204 0)
(0.680951 0.00121041 0)
(0.670642 0.00105535 0)
(0.660785 0.000948281 0)
(0.651013 0.00087578 0)
(0.64145 0.000835157 0)
(0.631995 0.000803716 0)
(0.622579 0.000774949 0)
(0.613323 0.000754752 0)
(0.604082 0.000731317 0)
(0.59496 0.00071485 0)
(0.585934 0.000694065 0)
(0.576846 0.000665392 0)
(0.568098 0.000635503 0)
(0.559377 0.000602618 0)
(0.550833 0.000579434 0)
(0.5425 0.000553112 0)
(0.534193 0.000525639 0)
(0.526161 0.000497696 0)
(0.51837 0.000468509 0)
(0.510617 0.000448893 0)
(0.503203 0.000418429 0)
(0.495958 0.000391459 0)
(0.488959 0.000374537 0)
(0.482117 0.000346485 0)
(0.475565 0.000328766 0)
(0.469219 0.0003142 0)
(0.463055 0.000284224 0)
(0.45705 0.000267595 0)
(0.451501 0.000256179 0)
(0.446019 0.000235379 0)
(0.440727 0.000222087 0)
(0.435629 0.000207424 0)
(0.430898 0.000187139 0)
(0.426319 0.000174698 0)
(0.422057 0.000161828 0)
(0.417827 0.00014587 0)
(0.413925 0.000140053 0)
(0.41026 0.000127831 0)
(0.406927 0.000105258 0)
(0.403581 0.000101446 0)
(0.400584 0.000102973 0)
(0.397683 8.63393e-05 0)
(0.39514 7.14501e-05 0)
(0.392644 6.88249e-05 0)
(0.390482 6.39468e-05 0)
(0.388312 5.64239e-05 0)
(0.386514 4.96678e-05 0)
(0.384689 4.32284e-05 0)
(0.383198 3.95246e-05 0)
(0.381656 3.60326e-05 0)
(0.380476 2.95585e-05 0)
(0.379193 2.56976e-05 0)
(0.378265 2.40203e-05 0)
(0.377205 2.06296e-05 0)
(0.3765 1.68084e-05 0)
(0.37563 1.48805e-05 0)
(0.375113 1.32357e-05 0)
(0.374403 1.05987e-05 0)
(0.374046 8.86108e-06 0)
(0.373474 7.60999e-06 0)
(0.373253 6.20202e-06 0)
(0.372786 5.1333e-06 0)
(0.372682 4.05424e-06 0)
(0.372289 3.55745e-06 0)
(0.372284 3.03298e-06 0)
(0.371918 2.77652e-06 0)
(0.372005 3.87256e-06 0)
(0.371576 7.68749e-06 0)
(0.997437 0.00371467 0)
(0.996879 0.00474672 0)
(0.996495 0.00541596 0)
(0.996277 0.00559755 0)
(0.996292 0.00554863 0)
(0.996346 0.00551611 0)
(0.996414 0.00557484 0)
(0.99641 0.00570661 0)
(0.9963 0.00586325 0)
(0.996118 0.00602387 0)
(0.995771 0.00618286 0)
(0.995292 0.00635227 0)
(0.994527 0.00653154 0)
(0.993549 0.00670127 0)
(0.992274 0.0068786 0)
(0.990693 0.00704597 0)
(0.988804 0.00720722 0)
(0.986471 0.0073551 0)
(0.983832 0.00750298 0)
(0.980662 0.00761131 0)
(0.977161 0.00768271 0)
(0.973079 0.00770721 0)
(0.968601 0.00763898 0)
(0.963645 0.00745015 0)
(0.958271 0.00705889 0)
(0.952646 0.00646486 0)
(0.946796 0.00567587 0)
(0.941012 0.00478276 0)
(0.935309 0.00391948 0)
(0.929703 0.00320775 0)
(0.924268 0.00273334 0)
(0.918696 0.00242567 0)
(0.913323 0.00224044 0)
(0.907734 0.00211297 0)
(0.902237 0.00202465 0)
(0.896623 0.00198371 0)
(0.890891 0.00195794 0)
(0.885136 0.00194479 0)
(0.879156 0.00192594 0)
(0.873115 0.00190804 0)
(0.866956 0.00188979 0)
(0.860567 0.00186217 0)
(0.854222 0.00184323 0)
(0.847483 0.00180716 0)
(0.840865 0.00175187 0)
(0.834028 0.00170297 0)
(0.827082 0.00165592 0)
(0.820195 0.00160922 0)
(0.81304 0.00156347 0)
(0.805931 0.00150149 0)
(0.798851 0.00144324 0)
(0.791476 0.00139983 0)
(0.784382 0.00133609 0)
(0.777054 0.00127117 0)
(0.769818 0.00122393 0)
(0.762649 0.00116652 0)
(0.755426 0.00110847 0)
(0.748271 0.0010611 0)
(0.741282 0.00100791 0)
(0.734035 0.000952248 0)
(0.727237 0.000897756 0)
(0.720392 0.000848827 0)
(0.713582 0.000809706 0)
(0.706913 0.000764346 0)
(0.700537 0.000706381 0)
(0.694041 0.000654803 0)
(0.688045 0.000616701 0)
(0.681988 0.000580947 0)
(0.676094 0.000542043 0)
(0.670476 0.00049099 0)
(0.665326 0.00044105 0)
(0.65995 0.000419019 0)
(0.655052 0.000397913 0)
(0.650277 0.000350874 0)
(0.645909 0.000309657 0)
(0.641556 0.000288616 0)
(0.637697 0.000264495 0)
(0.633784 0.000235827 0)
(0.63042 0.000210472 0)
(0.627016 0.000187987 0)
(0.624078 0.000169334 0)
(0.621102 0.000151431 0)
(0.618668 0.000130928 0)
(0.616095 0.000115546 0)
(0.614049 0.000103481 0)
(0.611876 8.99771e-05 0)
(0.610219 7.68596e-05 0)
(0.608379 6.75147e-05 0)
(0.607059 5.88729e-05 0)
(0.605532 4.97778e-05 0)
(0.604505 4.21402e-05 0)
(0.603239 3.60002e-05 0)
(0.602484 2.9876e-05 0)
(0.601433 2.49786e-05 0)
(0.600926 2.05198e-05 0)
(0.600036 1.71155e-05 0)
(0.599762 1.43782e-05 0)
(0.598966 1.20533e-05 0)
(0.598909 1.18915e-05 0)
(0.59812 1.81252e-05 0)
(0.997902 0.00356448 0)
(0.997335 0.00442485 0)
(0.996875 0.00515815 0)
(0.996627 0.00558833 0)
(0.996669 0.00570527 0)
(0.996866 0.00571958 0)
(0.997147 0.00575888 0)
(0.997442 0.0058709 0)
(0.99773 0.00602253 0)
(0.998046 0.00619241 0)
(0.998365 0.0063652 0)
(0.998677 0.00654579 0)
(0.998938 0.00673491 0)
(0.999148 0.00691523 0)
(0.999343 0.00710473 0)
(0.999461 0.00728384 0)
(0.999579 0.0074583 0)
(0.999571 0.00762551 0)
(0.999569 0.00778772 0)
(0.999455 0.00791535 0)
(0.999326 0.00799589 0)
(0.999078 0.00804019 0)
(0.998763 0.00797161 0)
(0.998336 0.00777844 0)
(0.997747 0.00739225 0)
(0.996992 0.00681668 0)
(0.996041 0.0060631 0)
(0.99486 0.00520672 0)
(0.993541 0.00437634 0)
(0.991941 0.00367196 0)
(0.990319 0.003189 0)
(0.988445 0.00288213 0)
(0.986662 0.00269406 0)
(0.984715 0.0025828 0)
(0.982811 0.00250235 0)
(0.980844 0.00246667 0)
(0.978826 0.00243928 0)
(0.976776 0.00242002 0)
(0.974637 0.00240408 0)
(0.972372 0.00238088 0)
(0.97012 0.00236721 0)
(0.967601 0.00234297 0)
(0.965178 0.00233023 0)
(0.962435 0.00230617 0)
(0.959723 0.00225023 0)
(0.956811 0.00221336 0)
(0.953752 0.00217091 0)
(0.950653 0.00212873 0)
(0.947376 0.002099 0)
(0.943966 0.00203217 0)
(0.940578 0.00198402 0)
(0.93684 0.00195292 0)
(0.933251 0.00188387 0)
(0.929352 0.00182991 0)
(0.925447 0.00178346 0)
(0.921445 0.0017201 0)
(0.917349 0.00166997 0)
(0.913099 0.00161634 0)
(0.908951 0.00156078 0)
(0.904433 0.00150928 0)
(0.900159 0.0014404 0)
(0.89568 0.00138631 0)
(0.891172 0.00134761 0)
(0.886532 0.00128538 0)
(0.882084 0.00121816 0)
(0.877327 0.00115807 0)
(0.872846 0.00109656 0)
(0.868213 0.00105176 0)
(0.863661 0.00100783 0)
(0.859077 0.000928239 0)
(0.854817 0.000854889 0)
(0.850202 0.000826554 0)
(0.84593 0.000788522 0)
(0.841618 0.000715066 0)
(0.83757 0.000652992 0)
(0.833389 0.000614445 0)
(0.829621 0.000572013 0)
(0.825669 0.0005233 0)
(0.822141 0.000475919 0)
(0.818502 0.00043485 0)
(0.815239 0.000399164 0)
(0.811864 0.000362175 0)
(0.808961 0.000322472 0)
(0.805891 0.000291592 0)
(0.803293 0.000263871 0)
(0.800552 0.000234925 0)
(0.798291 0.000207247 0)
(0.795841 0.000185178 0)
(0.793913 0.000163724 0)
(0.791768 0.00014293 0)
(0.790159 0.000124981 0)
(0.788274 0.000109106 0)
(0.786993 9.43961e-05 0)
(0.785326 8.05774e-05 0)
(0.784377 6.92872e-05 0)
(0.782872 5.80722e-05 0)
(0.78227 5.05016e-05 0)
(0.780864 4.16352e-05 0)
(0.780614 3.83226e-05 0)
(0.779224 4.04595e-05 0)
(0.998252 0.00353822 0)
(0.99769 0.00431512 0)
(0.997187 0.00502536 0)
(0.996863 0.00555931 0)
(0.996845 0.0057833 0)
(0.997017 0.00583437 0)
(0.99732 0.00584308 0)
(0.997623 0.00590331 0)
(0.997951 0.00601501 0)
(0.998278 0.00616123 0)
(0.998656 0.00632696 0)
(0.999014 0.0065015 0)
(0.999371 0.00669139 0)
(0.999692 0.00686896 0)
(1.00005 0.00705887 0)
(1.00038 0.00723606 0)
(1.00075 0.00741092 0)
(1.00109 0.00757553 0)
(1.00148 0.00773245 0)
(1.00187 0.00785877 0)