/*--------------------------------*- C++ -*----------------------------------*\
  =========                 |
  \\      /  F ield         | OpenFOAM: The Open Source CFD Toolbox
   \\    /   O peration     | Website:  https://openfoam.org
    \\  /    A nd           | Version:  10
     \\/     M anipulation  |
\*---------------------------------------------------------------------------*/
FoamFile
{
    format      ascii;
    class       surfaceScalarField;
    location    "0.6";
    object      phi;
}
// * * * * * * * * * * * * * * * * * * * * * * * * * * * * * * * * * * * * * //

dimensions      [0 3 -1 0 0 0 0];

internalField   nonuniform List<scalar> 
9440
(
3.88153e-06
-3.88236e-09
3.87682e-06
-1.85554e-08
3.87844e-06
3.46506e-09
3.87564e-06
-2.12494e-08
3.87713e-06
-1.5425e-09
3.87427e-06
-2.68074e-08
3.87611e-06
1.39793e-08
3.87511e-06
-1.97084e-08
3.87681e-06
1.29286e-08
3.87756e-06
-2.14612e-08
3.87852e-06
1.39571e-10
3.87943e-06
-2.93003e-08
3.88024e-06
-7.51432e-09
3.8812e-06
-2.60659e-08
3.88175e-06
-9.28394e-09
3.88228e-06
-1.84949e-08
3.88135e-06
-2.61208e-09
3.87638e-06
-7.2724e-09
3.86207e-06
2.25344e-08
3.56034e-08
3.84109e-06
4.18337e-06
-1.39033e-09
4.18595e-06
-2.11347e-08
4.18256e-06
6.85684e-09
4.18486e-06
-2.35572e-08
4.18246e-06
8.63944e-10
4.18267e-06
-2.70234e-08
4.18279e-06
1.38579e-08
4.18198e-06
-1.88971e-08
4.18441e-06
1.05034e-08
4.18267e-06
-1.97238e-08
4.1857e-06
-2.88972e-09
4.18238e-06
-2.59778e-08
4.18552e-06
-1.06611e-08
4.18337e-06
-2.39135e-08
4.1857e-06
-1.16128e-08
4.18333e-06
-1.61273e-08
4.18134e-06
-6.17009e-10
4.16967e-06
4.3948e-09
4.16399e-06
2.82194e-08
4.16922e-08
4.1579e-06
4.51762e-06
1.05576e-09
4.51926e-06
-2.27828e-08
4.51764e-06
8.48169e-09
4.51778e-06
-2.36934e-08
4.51773e-06
9.12344e-10
4.51545e-06
-2.47493e-08
4.51886e-06
1.04551e-08
4.51447e-06
-1.45139e-08
4.52074e-06
4.23334e-09
4.51535e-06
-1.43324e-08
4.52222e-06
-9.75463e-09
4.51555e-06
-1.93081e-08
4.52207e-06
-1.71883e-08
4.51605e-06
-1.78876e-08
4.52094e-06
-1.65099e-08
4.51406e-06
-9.24427e-09
4.5126e-06
8.42029e-10
4.50234e-06
1.46597e-08
4.49898e-06
3.15815e-08
4.64342e-08
4.49423e-06
4.88031e-06
1.69833e-09
4.87954e-06
-2.20208e-08
4.8809e-06
7.12358e-09
4.87825e-06
-2.10393e-08
4.88087e-06
-1.71057e-09
4.87616e-06
-2.00359e-08
4.88167e-06
4.94517e-09
4.87586e-06
-8.70909e-09
4.88256e-06
-2.4653e-09
4.87794e-06
-9.71643e-09
4.88309e-06
-1.48968e-08
4.88075e-06
-1.69729e-08
4.88366e-06
-2.00947e-08
4.8824e-06
-1.66303e-08
4.88175e-06
-1.58597e-08
4.87584e-06
-3.33545e-09
4.86807e-06
8.61269e-09
4.86236e-06
2.03748e-08
4.85895e-06
3.49901e-08
4.89375e-08
4.85644e-06
5.27067e-06
1.67636e-09
5.26869e-06
-2.00451e-08
5.27178e-06
4.03617e-09
5.26759e-06
-1.68471e-08
5.27167e-06
-5.78887e-09
5.26583e-06
-1.41995e-08
5.27178e-06
-1.00514e-09
5.26667e-06
-3.59568e-09
5.27179e-06
-7.59035e-09
5.27051e-06
-8.43708e-09
5.2723e-06
-1.66862e-08
5.27374e-06
-1.84091e-08
5.27369e-06
-2.00454e-08
5.27245e-06
-1.5388e-08
5.2679e-06
-1.13155e-08
5.26119e-06
3.37497e-09
5.25544e-06
1.43652e-08
5.25083e-06
2.49821e-08
5.24784e-06
3.7987e-08
5.05557e-08
5.24622e-06
5.69173e-06
1.40083e-09
5.68876e-06
-1.7067e-08
5.69314e-06
-3.51474e-10
5.68817e-06
-1.18755e-08
5.69247e-06
-1.00857e-08
5.68733e-06
-9.06403e-09
5.69122e-06
-4.89566e-09
5.69012e-06
-2.49247e-09
5.69095e-06
-8.41943e-09
5.69396e-06
-1.14459e-08
5.69326e-06
-1.59915e-08
5.69453e-06
-1.96728e-08
5.69363e-06
-1.91499e-08
5.69053e-06
-1.2289e-08
5.68406e-06
-4.84036e-09
5.67856e-06
8.87288e-09
5.6739e-06
1.90262e-08
5.6701e-06
2.87802e-08
5.66763e-06
4.04553e-08
5.17208e-08
5.66647e-06
6.14629e-06
9.84802e-10
6.1425e-06
-1.32813e-08
6.14769e-06
-5.54225e-09
6.14279e-06
-6.97822e-09
6.1461e-06
-1.33938e-08
6.14313e-06
-6.09088e-09
6.14382e-06
-5.58423e-09
6.14682e-06
-5.49349e-09
6.14517e-06
-6.76639e-09
6.14795e-06
-1.42306e-08
6.14903e-06
-1.70697e-08
6.14777e-06
-1.84123e-08
6.14592e-06
-1.73046e-08
6.14071e-06
-7.07774e-09
6.1342e-06
1.66605e-09
6.1301e-06
1.29728e-08
6.12613e-06
2.30028e-08
6.12291e-06
3.19947e-08
6.12089e-06
4.24784e-08
5.2517e-08
6.12009e-06
6.63706e-06
4.90439e-10
6.63283e-06
-9.05312e-09
6.63788e-06
-1.05966e-08
6.63444e-06
-3.53345e-09
6.63539e-06
-1.43511e-08
6.63592e-06
-6.61961e-09
6.63375e-06
-3.40754e-09
6.63718e-06
-8.9268e-09
6.6381e-06
-7.68533e-09
6.63788e-06
-1.4007e-08
6.63941e-06
-1.86006e-08
6.63719e-06
-1.62002e-08
6.63234e-06
-1.24519e-08
6.62721e-06
-1.94631e-09
6.62198e-06
6.90018e-09
6.61822e-06
1.6724e-08
6.61488e-06
2.63452e-08
6.61208e-06
3.47959e-08
6.61041e-06
4.41446e-08
5.30651e-08
6.60987e-06
7.16691e-06
9.84273e-12
7.16279e-06
-4.93696e-09
7.16648e-06
-1.4284e-08
7.16602e-06
-3.06845e-09
7.16393e-06
-1.22595e-08
7.16649e-06
-9.18776e-09
7.16505e-06
-1.96552e-09
7.16566e-06
-9.53985e-09
7.16888e-06
-1.08995e-08
7.16798e-06
-1.31059e-08
7.16703e-06
-1.76508e-08
7.16485e-06
-1.40192e-08
7.15889e-06
-6.49022e-09
7.15365e-06
3.28721e-09
7.14929e-06
1.12658e-08
7.14579e-06
2.02171e-08
7.14293e-06
2.92116e-08
7.14049e-06
3.72283e-08
7.13909e-06
4.55497e-08
5.34213e-08
7.13873e-06
7.73896e-06
-3.44023e-10
7.73564e-06
-1.61794e-09
7.73656e-06
-1.52097e-08
7.73986e-06
-6.36852e-09
7.73597e-06
-8.36215e-09
7.73801e-06
-1.12343e-08
7.73912e-06
-3.07021e-09
7.73754e-06
-7.96108e-09
7.73983e-06
-1.31857e-08
7.74028e-06
-1.35636e-08
7.7363e-06
-1.36701e-08
7.7321e-06
-9.81777e-09
7.72763e-06
-2.01441e-09
7.7232e-06
7.71342e-09
7.71916e-06
1.53101e-08
7.7159e-06
2.34714e-08
7.71338e-06
3.17371e-08
7.71128e-06
3.93189e-08
7.71007e-06
4.6761e-08
5.36188e-08
7.70988e-06
8.35663e-06
-5.13444e-10
8.35465e-06
3.63269e-10
8.35283e-06
-1.33865e-08
8.35783e-06
-1.13718e-08
8.3554e-06
-5.93737e-09
8.35479e-06
-1.06231e-08
8.35738e-06
-5.6557e-09
8.35686e-06
-7.43933e-09
8.35562e-06
-1.19484e-08
8.3561e-06
-1.4047e-08
8.35235e-06
-9.91858e-09
8.34639e-06
-3.8569e-09
8.34187e-06
2.50644e-09
8.33856e-06
1.10266e-08
8.33489e-06
1.89734e-08
8.33182e-06
2.65441e-08
8.32956e-06
3.3994e-08
8.32779e-06
4.10886e-08
8.32679e-06
4.77683e-08
5.36774e-08
8.32673e-06
9.02364e-06
-5.0754e-10
9.0234e-06
6.09521e-10
9.01969e-06
-9.6786e-09
9.02354e-06
-1.52261e-08
9.0248e-06
-7.19382e-09
9.02188e-06
-7.7003e-09
9.02355e-06
-7.32695e-09
9.02476e-06
-8.65247e-09
9.02181e-06
-8.99476e-09
9.01904e-06
-1.12815e-08
9.01676e-06
-7.63391e-09
9.01167e-06
1.22745e-09
9.00639e-06
7.79059e-09
9.00312e-06
1.429e-08
9.0001e-06
2.1994e-08
8.99728e-06
2.93701e-08
8.99522e-06
3.60491e-08
8.99371e-06
4.25994e-08
8.99291e-06
4.85692e-08
5.36305e-08
8.99296e-06
9.74402e-06
-4.29674e-10
9.74527e-06
-6.33995e-10
9.7411e-06
-5.51095e-09
9.7415e-06
-1.56237e-08
9.74585e-06
-1.1546e-08
9.74406e-06
-5.91419e-09
9.74273e-06
-5.98943e-09
9.74399e-06
-9.91264e-09
9.74207e-06
-7.07645e-09
9.7363e-06
-5.51698e-09
9.73265e-06
-3.9808e-09
9.72963e-06
4.24665e-09
9.72503e-06
1.23954e-08
9.72132e-06
1.79959e-08
9.71859e-06
2.47237e-08
9.71609e-06
3.18693e-08
9.7142e-06
3.79401e-08
9.71293e-06
4.38658e-08
9.71236e-06
4.91474e-08
5.34465e-08
9.71254e-06
1.05221e-05
-4.02502e-10
1.05235e-05
-2.12249e-09
1.05209e-05
-2.87578e-09
1.05178e-05
-1.25026e-08
1.05223e-05
-1.60317e-08
1.0524e-05
-7.61921e-09
1.05207e-05
-2.75159e-09
1.05191e-05
-8.26281e-09
1.05185e-05
-6.53167e-09
1.05133e-05
-2.33304e-10
1.05072e-05
2.05747e-09
1.05042e-05
7.24352e-09
1.05011e-05
1.55559e-08
1.04974e-05
2.16475e-08
1.04947e-05
2.74064e-08
1.04926e-05
3.40303e-08
1.04909e-05
3.96469e-08
1.04898e-05
4.49041e-08
1.04894e-05
4.95214e-08
5.31176e-08
1.04898e-05
1.13623e-05
-5.58678e-10
1.1363e-05
-2.74946e-09
1.13632e-05
-3.09938e-09
1.13582e-05
-7.56812e-09
1.13596e-05
-1.73384e-08
1.13638e-05
-1.18937e-08
1.13623e-05
-1.19611e-09
1.1357e-05
-2.96692e-09
1.13548e-05
-4.33795e-09
1.13517e-05
2.82051e-09
1.13458e-05
7.98267e-09
1.13415e-05
1.15932e-08
1.13388e-05
1.81889e-08
1.13358e-05
2.46456e-08
1.13332e-05
3.00492e-08
1.13313e-05
3.58939e-08
1.13298e-05
4.11625e-08
1.1329e-05
4.57395e-08
1.13288e-05
4.97068e-08
5.26525e-08
1.13292e-05
1.22697e-05
-8.98375e-10
1.2269e-05
-2.07817e-09
1.22713e-05
-5.39703e-09
1.22674e-05
-3.69375e-09
1.22643e-05
-1.4223e-08
1.22682e-05
-1.57658e-08
1.227e-05
-3.01036e-09
1.22642e-05
2.78737e-09
1.22585e-05
1.3643e-09
1.22557e-05
5.67028e-09
1.22517e-05
1.1991e-08
1.2247e-05
1.63034e-08
1.22438e-05
2.14004e-08
1.22413e-05
2.71563e-08
1.22389e-05
3.24464e-08
1.22372e-05
3.75132e-08
1.2236e-05
4.24267e-08
1.22353e-05
4.63707e-08
1.22353e-05
4.97075e-08
5.20695e-08
1.22359e-05
1.32493e-05
-1.24094e-09
1.3248e-05
-8.22834e-10
1.32499e-05
-7.3191e-09
1.32496e-05
-3.36871e-09
1.32435e-05
-8.15756e-09
1.32433e-05
-1.55602e-08
1.32471e-05
-6.7238e-09
1.32445e-05
5.35894e-09
1.3237e-05
8.81647e-09
1.32322e-05
1.05227e-08
1.32291e-05
1.51023e-08
1.32253e-05
2.00949e-08
1.32218e-05
2.49107e-08
1.32192e-05
2.96842e-08
1.32172e-05
3.45265e-08
1.32157e-05
3.89422e-08
1.32148e-05
4.33945e-08
1.32143e-05
4.67944e-08
1.32145e-05
4.9538e-08
5.137e-08
1.32152e-05
1.43069e-05
-1.37779e-09
1.43062e-05
-1.35821e-10
1.43061e-05
-7.23345e-09
1.43083e-05
-5.56322e-09
1.43032e-05
-3.05829e-09
1.42978e-05
-1.02112e-08
1.42993e-05
-8.12994e-09
1.43007e-05
3.88143e-09
1.42952e-05
1.43004e-08
1.42884e-05
1.73778e-08
1.42843e-05
1.91539e-08
1.42814e-05
2.30583e-08
1.42784e-05
2.79092e-08
1.42758e-05
3.22875e-08
1.42738e-05
3.64602e-08
1.42726e-05
4.0192e-08
1.42719e-05
4.40613e-08
1.42717e-05
4.7003e-08
1.42721e-05
4.9169e-08
5.05571e-08
1.42729e-05
1.54489e-05
-1.24869e-09
1.54492e-05
-4.97753e-10
1.54473e-05
-5.27267e-09
1.54493e-05
-7.56397e-09
1.54476e-05
-1.33865e-09
1.54398e-05
-2.47989e-09
1.5436e-05
-4.29656e-09
1.54373e-05
2.52327e-09
1.54364e-05
1.52568e-08
1.54307e-05
2.30395e-08
1.5425e-05
2.49136e-08
1.54217e-05
2.63615e-08
1.54192e-05
3.03448e-08
1.54171e-05
3.44135e-08
1.54153e-05
3.82702e-08
1.54142e-05
4.13261e-08
1.54137e-05
4.44752e-08
1.54137e-05
4.70097e-08
1.54143e-05
4.85737e-08
4.96156e-08
1.54153e-05
1.66822e-05
-9.63915e-10
1.66831e-05
-1.46544e-09
1.66809e-05
-3.04447e-09
1.66805e-05
-7.10763e-09
1.66808e-05
-1.65193e-09
1.66749e-05
3.36054e-09
1.66672e-05
3.47154e-09
1.66647e-05
4.94742e-09
1.66658e-05
1.42012e-08
1.66635e-05
2.53619e-08
1.66584e-05
2.99938e-08
1.66538e-05
3.09495e-08
1.66513e-05
3.28592e-08
1.66496e-05
3.61113e-08
1.66482e-05
3.96769e-08
1.66472e-05
4.22624e-08
1.6647e-05
4.46974e-08
1.66472e-05
4.68417e-08
1.6648e-05
4.77999e-08
4.849e-08
1.66491e-05
1.80141e-05
-6.67215e-10
1.80149e-05
-2.24274e-09
1.80135e-05
-1.70517e-09
1.80107e-05
-4.31391e-09
1.80106e-05
-1.5041e-09
1.80073e-05
6.63202e-09
1.79999e-05
1.08679e-08
1.79936e-05
1.12344e-08
1.79925e-05
1.53902e-08
1.79928e-05
2.49855e-08
1.799e-05
3.28454e-08
1.79858e-05
3.51222e-08
1.79823e-05
3.63218e-08
1.79807e-05
3.7764e-08
1.79797e-05
4.06768e-08
1.7979e-05
4.29374e-08
1.79791e-05
4.4568e-08
1.79795e-05
4.6463e-08
1.79804e-05
4.69686e-08
4.71591e-08
1.79817e-05
1.94525e-05
-4.62691e-10
1.94525e-05
-2.24172e-09
1.9452e-05
-1.23721e-09
1.94485e-05
-7.8551e-10
1.94461e-05
9.14883e-10
1.94446e-05
8.09399e-09
1.94392e-05
1.62214e-08
1.94321e-05
1.83636e-08
1.94278e-05
1.96846e-08
1.94273e-05
2.55154e-08
1.9427e-05
3.31749e-08
1.94242e-05
3.78745e-08
1.9421e-05
3.94971e-08
1.94187e-05
4.01261e-08
1.94178e-05
4.15269e-08
1.94174e-05
4.3354e-08
1.94177e-05
4.42542e-08
1.94186e-05
4.56292e-08
1.94195e-05
4.602e-08
4.5738e-08
1.94209e-05
2.10056e-05
-2.98712e-10
2.10049e-05
-1.51875e-09
2.10044e-05
-7.4343e-10
2.10016e-05
2.00835e-09
2.09976e-05
4.9863e-09
2.09952e-05
1.04147e-08
2.09923e-05
1.914e-08
2.09865e-05
2.42305e-08
2.09806e-05
2.54914e-08
2.09782e-05
2.79836e-08
2.09777e-05
3.36049e-08
2.0977e-05
3.85721e-08
2.09748e-05
4.17829e-08
2.09726e-05
4.22515e-08
2.09714e-05
4.27811e-08
2.0971e-05
4.37081e-08
2.09715e-05
4.37551e-08
2.09726e-05
4.45531e-08
2.09739e-05
4.46985e-08
4.42353e-08
2.09754e-05
2.26827e-05
-8.45356e-11
2.26817e-05
-4.75591e-10
2.26804e-05
4.94421e-10
2.26782e-05
4.22632e-09
2.2674e-05
9.24203e-09
2.26704e-05
1.39952e-08
2.26681e-05
2.14277e-08
2.26642e-05
2.80902e-08
2.2659e-05
3.0715e-08
2.26549e-05
3.2096e-08
2.26535e-05
3.50166e-08
2.26531e-05
3.89115e-08
2.26525e-05
4.24335e-08
2.26509e-05
4.38634e-08
2.26499e-05
4.37312e-08
2.26494e-05
4.42161e-08
2.26497e-05
4.3465e-08
2.26511e-05
4.31922e-08
2.26526e-05
4.31836e-08
4.24253e-08
2.26544e-05
2.44936e-05
2.88636e-10
2.44924e-05
6.86951e-10
2.44904e-05
2.47422e-09
2.44882e-05
6.42386e-09
2.44846e-05
1.28596e-08
2.44804e-05
1.81952e-08
2.44776e-05
2.42703e-08
2.44751e-05
3.05574e-08
2.44711e-05
3.46769e-08
2.44671e-05
3.61848e-08
2.44645e-05
3.75915e-08
2.44637e-05
3.96676e-08
2.44638e-05
4.23964e-08
2.44633e-05
4.43115e-08
2.44627e-05
4.42996e-08
2.44627e-05
4.42546e-08
2.44628e-05
4.33305e-08
2.44639e-05
4.21001e-08
2.44657e-05
4.14619e-08
4.03529e-08
2.44677e-05
2.64491e-05
7.91505e-10
2.64477e-05
2.03351e-09
2.64453e-05
4.87466e-09
2.64427e-05
9.04791e-09
2.64396e-05
1.59039e-08
2.64357e-05
2.21449e-08
2.64324e-05
2.75724e-08
2.64302e-05
3.27741e-08
2.64276e-05
3.72834e-08
2.64243e-05
3.94218e-08
2.64214e-05
4.04826e-08
2.64201e-05
4.10179e-08
2.642e-05
4.24658e-08
2.64204e-05
4.39074e-08
2.64205e-05
4.42393e-08
2.64209e-05
4.38167e-08
2.64214e-05
4.28921e-08
2.64224e-05
4.11106e-08
2.64239e-05
3.99198e-08
3.82764e-08
2.6426e-05
2.85607e-05
1.44816e-09
2.85592e-05
3.46613e-09
2.85566e-05
7.51344e-09
2.85536e-05
1.2013e-08
2.85508e-05
1.87558e-08
2.85474e-05
2.55598e-08
2.8544e-05
3.09027e-08
2.85416e-05
3.52237e-08
2.85398e-05
3.90789e-08
2.85375e-05
4.17044e-08
2.85353e-05
4.26672e-08
2.85335e-05
4.27884e-08
2.85333e-05
4.26686e-08
2.85339e-05
4.33077e-08
2.85348e-05
4.33889e-08
2.85357e-05
4.29312e-08
2.85367e-05
4.18585e-08
2.85379e-05
3.99379e-08
2.85396e-05
3.82097e-08
3.64556e-08
2.85414e-05
3.0841e-05
2.15639e-09
3.08393e-05
5.10543e-09
3.08366e-05
1.01982e-08
3.08335e-05
1.51663e-08
3.08306e-05
2.16076e-08
3.08279e-05
2.83481e-08
3.08248e-05
3.39513e-08
3.08224e-05
3.76316e-08
3.08207e-05
4.07395e-08
3.08194e-05
4.30818e-08
3.08179e-05
4.41553e-08
3.08166e-05
4.40139e-08
3.08159e-05
4.3394e-08
3.08167e-05
4.2548e-08
3.08178e-05
4.2252e-08
3.08193e-05
4.14028e-08
3.08208e-05
4.04055e-08
3.08223e-05
3.84196e-08
3.08242e-05
3.63673e-08
3.45256e-08
3.08261e-05
3.33034e-05
2.89498e-09
3.33016e-05
6.88299e-09
3.32991e-05
1.27168e-08
3.32959e-05
1.83319e-08
3.3293e-05
2.44806e-08
3.32906e-05
3.07692e-08
3.32882e-05
3.64093e-08
3.32858e-05
3.99355e-08
3.32843e-05
4.23058e-08
3.32834e-05
4.39652e-08
3.32826e-05
4.4983e-08
3.3282e-05
4.45616e-08
3.32817e-05
4.37421e-08
3.32819e-05
4.23015e-08
3.32834e-05
4.07939e-08
3.3285e-05
3.9775e-08
3.32871e-05
3.83449e-08
3.32888e-05
3.67071e-08
3.32908e-05
3.43601e-08
3.22783e-08
3.3293e-05
3.59624e-05
3.58434e-09
3.59606e-05
8.71812e-09
3.59582e-05
1.50922e-08
3.59553e-05
2.12466e-08
3.59525e-05
2.72692e-08
3.59504e-05
3.29414e-08
3.59485e-05
3.82269e-08
3.59467e-05
4.17307e-08
3.59453e-05
4.37466e-08
3.59446e-05
4.46532e-08
3.59444e-05
4.52295e-08
3.59442e-05
4.47046e-08
3.59445e-05
4.35133e-08
3.59448e-05
4.19063e-08
3.59459e-05
3.97826e-08
3.59478e-05
3.78123e-08
3.59499e-05
3.62191e-08
3.59524e-05
3.42714e-08
3.59545e-05
3.228e-08
2.98155e-08
3.59569e-05
3.88339e-05
4.18218e-09
3.88321e-05
1.05085e-08
3.88299e-05
1.72333e-08
3.88275e-05
2.37129e-08
3.8825e-05
2.97217e-08
3.88231e-05
3.48892e-08
3.88217e-05
3.96027e-08
3.88206e-05
4.2853e-08
3.88196e-05
4.47405e-08
3.8819e-05
4.52064e-08
3.88191e-05
4.51316e-08
3.88193e-05
4.44726e-08
3.88199e-05
4.29383e-08
3.88208e-05
4.10155e-08
3.88219e-05
3.87393e-08
3.88236e-05
3.609e-08
3.88259e-05
3.38555e-08
3.88286e-05
3.16066e-08
3.88314e-05
2.95334e-08
2.73512e-08
3.88338e-05
4.19345e-05
4.68132e-09
4.1933e-05
1.20737e-08
4.19311e-05
1.90691e-08
4.19292e-05
2.566e-08
4.19273e-05
3.16327e-08
4.19258e-05
3.63465e-08
4.19249e-05
4.05236e-08
4.19244e-05
4.33905e-08
4.1924e-05
4.50707e-08
4.19239e-05
4.53522e-08
4.19242e-05
4.47823e-08
4.19249e-05
4.37863e-08
4.19257e-05
4.21627e-08
4.19269e-05
3.97619e-08
4.19283e-05
3.74078e-08
4.19299e-05
3.44195e-08
4.19322e-05
3.16052e-08
4.19347e-05
2.90738e-08
4.19377e-05
2.65416e-08
2.43486e-08
4.19407e-05
4.52828e-05
5.05516e-09
4.52816e-05
1.32657e-08
4.52801e-05
2.0514e-08
4.52789e-05
2.69381e-08
4.52777e-05
3.27825e-08
4.52769e-05
3.71571e-08
4.52766e-05
4.08367e-08
4.52767e-05
4.3308e-08
4.5277e-05
4.47848e-08
4.52774e-05
4.48992e-08
4.52782e-05
4.40379e-08
4.52794e-05
4.25689e-08
4.52806e-05
4.09168e-08
4.52821e-05
3.82873e-08
4.52839e-05
3.56087e-08
4.52857e-05
3.26681e-08
4.52879e-05
2.93531e-08
4.52905e-05
2.65101e-08
4.52933e-05
2.36891e-08
2.12819e-08
4.52964e-05
4.88984e-05
5.30164e-09
4.88977e-05
1.39411e-08
4.88968e-05
2.13496e-08
4.88963e-05
2.75117e-08
4.8896e-05
3.30909e-08
4.8896e-05
3.71109e-08
4.88965e-05
4.03011e-08
4.88975e-05
4.23933e-08
4.88986e-05
4.36757e-08
4.88996e-05
4.38426e-08
4.89008e-05
4.2867e-08
4.89025e-05
4.08613e-08
4.89045e-05
3.89105e-08
4.89065e-05
3.62549e-08
4.89089e-05
3.32349e-08
4.89111e-05
3.04372e-08
4.89134e-05
2.71347e-08
4.89158e-05
2.40436e-08
4.89184e-05
2.1126e-08
1.83987e-08
4.89213e-05
5.28026e-05
5.36147e-09
5.28026e-05
1.40386e-08
5.28025e-05
2.14281e-08
5.28027e-05
2.7254e-08
5.28034e-05
3.24208e-08
5.28044e-05
3.61036e-08
5.28059e-05
3.87709e-08
5.2808e-05
4.03746e-08
5.28102e-05
4.14516e-08
5.28124e-05
4.16314e-08
5.28141e-05
4.11113e-08
5.28158e-05
3.92154e-08
5.28182e-05
3.64653e-08
5.28207e-05
3.38288e-08
5.28234e-05
3.05303e-08
5.28263e-05
2.74793e-08
5.28291e-05
2.43297e-08
5.28321e-05
2.10986e-08
5.28345e-05
1.87504e-08
1.6014e-08
5.28368e-05
5.70187e-05
5.19692e-09
5.70192e-05
1.35364e-08
5.702e-05
2.05733e-08
5.70213e-05
2.59936e-08
5.70231e-05
3.06451e-08
5.70252e-05
3.39554e-08
5.70277e-05
3.6316e-08
5.70307e-05
3.73831e-08
5.70342e-05
3.79084e-08
5.70382e-05
3.76312e-08
5.70419e-05
3.74079e-08
5.70447e-05
3.64267e-08
5.70466e-05
3.45572e-08
5.70481e-05
3.23397e-08
5.70493e-05
2.93197e-08
5.7051e-05
2.5785e-08
5.70538e-05
2.15747e-08
5.70569e-05
1.79981e-08
5.70606e-05
1.49796e-08
1.22945e-08
5.70644e-05
6.15714e-05
4.75502e-09
6.15725e-05
1.24196e-08
6.15743e-05
1.87337e-08
6.15767e-05
2.36093e-08
6.15798e-05
2.75939e-08
6.15833e-05
3.04359e-08
6.15871e-05
3.2521e-08
6.15908e-05
3.36174e-08
6.15947e-05
3.40243e-08
6.15991e-05
3.33045e-08
6.16047e-05
3.1745e-08
6.16112e-05
2.99452e-08
6.16181e-05
2.76932e-08
6.1625e-05
2.5385e-08
6.16312e-05
2.30923e-08
6.16361e-05
2.09357e-08
6.16384e-05
1.9311e-08
6.16395e-05
1.68841e-08
6.16399e-05
1.45269e-08
1.23125e-08
6.16399e-05
6.64875e-05
4.02753e-09
6.64894e-05
1.054e-08
6.64923e-05
1.58732e-08
6.64959e-05
1.99925e-08
6.65002e-05
2.32867e-08
6.65051e-05
2.55694e-08
6.65104e-05
2.72176e-08
6.65159e-05
2.80911e-08
6.65214e-05
2.85292e-08
6.65263e-05
2.83862e-08
6.653e-05
2.80658e-08
6.65323e-05
2.76511e-08
6.65338e-05
2.61897e-08
6.65351e-05
2.40744e-08
6.65366e-05
2.15797e-08
6.65396e-05
1.79666e-08
6.65438e-05
1.50641e-08
6.65483e-05
1.23545e-08
6.6553e-05
9.91673e-09
7.86713e-09
6.65574e-05
7.1796e-05
3.14967e-09
7.17985e-05
8.09697e-09
7.18022e-05
1.21094e-08
7.1807e-05
1.51974e-08
7.18126e-05
1.77014e-08
7.18188e-05
1.94332e-08
7.18253e-05
2.06876e-08
7.1832e-05
2.13589e-08
7.18389e-05
2.16855e-08
7.18457e-05
2.15318e-08
7.18528e-05
2.10298e-08
7.18603e-05
2.01492e-08
7.18675e-05
1.89739e-08
7.18741e-05
1.74085e-08
7.18799e-05
1.5775e-08
7.18839e-05
1.3987e-08
7.18868e-05
1.2175e-08
7.18888e-05
1.03286e-08
7.18902e-05
8.52281e-09
6.90121e-09
7.18912e-05
7.75288e-05
7.75322e-05
7.75372e-05
7.75432e-05
7.755e-05
7.75575e-05
7.75654e-05
7.75734e-05
7.75815e-05
7.75894e-05
7.75971e-05
7.76044e-05
7.76112e-05
7.76173e-05
7.76227e-05
7.76275e-05
7.76315e-05
7.76349e-05
7.76374e-05
7.76393e-05
3.77253e-06
6.85539e-08
3.67897e-06
9.35603e-08
3.57971e-06
9.92659e-08
3.48148e-06
9.82254e-08
3.38338e-06
9.81056e-08
3.28416e-06
9.92183e-08
3.18325e-06
1.00911e-07
3.08054e-06
1.02709e-07
2.97606e-06
1.04477e-07
2.86981e-06
1.0625e-07
2.76168e-06
1.08129e-07
2.65158e-06
1.101e-07
2.53955e-06
1.12037e-07
2.42547e-06
1.1408e-07
2.30926e-06
1.16208e-07
2.19112e-06
1.18139e-07
2.07154e-06
1.19575e-07
1.95112e-06
1.20424e-07
1.83056e-06
1.20563e-07
1.70987e-06
1.20685e-07
1.58918e-06
1.20692e-07
1.46955e-06
1.19631e-07
1.35355e-06
1.16004e-07
1.24442e-06
1.0913e-07
1.1454e-06
9.90149e-08
1.05975e-06
8.56544e-08
9.90151e-07
6.95953e-08
9.37541e-07
5.26096e-08
8.99979e-07
3.7562e-08
8.73927e-07
2.60528e-08
8.5589e-07
1.80369e-08
8.42767e-07
1.31233e-08
8.32439e-07
1.03278e-08
8.23378e-07
9.06119e-09
8.14923e-07
8.45442e-09
8.06788e-07
8.13537e-09
7.9836e-07
8.42727e-09
7.89519e-07
8.84154e-09
7.80057e-07
9.46161e-09
7.70147e-07
9.91022e-09
7.60057e-07
1.00898e-08
7.49388e-07
1.06691e-08
7.38554e-07
1.08347e-08
7.28167e-07
1.0387e-08
7.18064e-07
1.01029e-08
7.07908e-07
1.01561e-08
6.97544e-07
1.03637e-08
6.87445e-07
1.00993e-08
6.77906e-07
9.53897e-09
6.68762e-07
9.1437e-09
6.60007e-07
8.75498e-09
6.51668e-07
8.33878e-09
6.43636e-07
8.03255e-09
6.3567e-07
7.96546e-09
6.28529e-07
7.14088e-09
6.22638e-07
5.89095e-09
6.16329e-07
6.30968e-09
6.09417e-07
6.91131e-09
6.03905e-07
5.51263e-09
5.9954e-07
4.36485e-09
5.94863e-07
4.6771e-09
5.90189e-07
4.67395e-09
5.86152e-07
4.03716e-09
5.82799e-07
3.3526e-09
5.79777e-07
3.02186e-09
5.76865e-07
2.91236e-09
5.74372e-07
2.49266e-09
5.72285e-07
2.08707e-09
5.70244e-07
2.04069e-09
5.68483e-07
1.76149e-09
5.67202e-07
1.28104e-09
5.65908e-07
1.29431e-09
5.64698e-07
1.20941e-09
5.63879e-07
8.19489e-10
5.63211e-07
6.6723e-10
5.62475e-07
7.36915e-10
5.61901e-07
5.73317e-10
5.61573e-07
3.28441e-10
5.61232e-07
3.4091e-10
5.60906e-07
3.26406e-10
5.60681e-07
2.24243e-10
5.60542e-07
1.3896e-10
5.60435e-07
1.07661e-10
5.60336e-07
9.90775e-11
5.60307e-07
2.80638e-11
5.60291e-07
1.64086e-11
5.60302e-07
-1.10939e-11
5.60326e-07
-2.38568e-11
5.60356e-07
-2.95546e-11
5.60398e-07
-4.20711e-11
5.60437e-07
-3.8951e-11
5.60465e-07
-2.85867e-11
5.60499e-07
-3.42035e-11
5.60506e-07
-6.49562e-12
5.60512e-07
-5.83e-12
5.60491e-07
2.06649e-11
5.60455e-07
3.6491e-11
5.60404e-07
5.10243e-11
5.60286e-07
1.17866e-10
4.34242e-10
4.16318e-06
6.32741e-08
4.1669e-06
8.98336e-08
4.16182e-06
1.04353e-07
4.15221e-06
1.07827e-07
4.14135e-06
1.08966e-07
4.12938e-06
1.11192e-07
4.1152e-06
1.15092e-07
4.09831e-06
1.19603e-07
4.07846e-06
1.2432e-07
4.05558e-06
1.29129e-07
4.02959e-06
1.34117e-07
4.0002e-06
1.39499e-07
3.96737e-06
1.4486e-07
3.93076e-06
1.50691e-07
3.89025e-06
1.56719e-07
3.84562e-06
1.6277e-07
3.79683e-06
1.68365e-07
3.74394e-06
1.73313e-07
3.687e-06
1.77507e-07
3.62616e-06
1.81523e-07
3.56119e-06
1.85662e-07
3.49244e-06
1.8838e-07
3.42083e-06
1.87617e-07
3.34783e-06
1.82127e-07
3.27507e-06
1.71774e-07
3.20386e-06
1.56868e-07
3.13637e-06
1.3708e-07
3.07368e-06
1.15305e-07
3.01651e-06
9.47247e-08
2.96493e-06
7.76333e-08
2.91721e-06
6.57627e-08
2.87236e-06
5.79697e-08
2.82937e-06
5.33175e-08
2.78724e-06
5.11896e-08
2.74657e-06
4.91297e-08
2.70689e-06
4.78161e-08
2.66774e-06
4.75794e-08
2.62899e-06
4.75879e-08
2.59011e-06
4.83419e-08
2.55176e-06
4.82609e-08
2.51399e-06
4.78556e-08
2.47587e-06
4.87868e-08
2.43834e-06
4.83671e-08
2.40224e-06
4.64906e-08
2.36659e-06
4.57535e-08
2.33128e-06
4.54674e-08
2.29695e-06
4.46951e-08
2.26325e-06
4.3791e-08
2.23025e-06
4.25455e-08
2.1989e-06
4.04919e-08
2.16893e-06
3.87203e-08
2.13933e-06
3.794e-08
2.11056e-06
3.68013e-08
2.08363e-06
3.48972e-08
2.05858e-06
3.21919e-08
2.03459e-06
2.98808e-08
2.01097e-06
2.993e-08
1.98859e-06
2.92893e-08
1.96857e-06
2.55322e-08
1.95011e-06
2.28264e-08
1.9322e-06
2.25916e-08
1.9153e-06
2.15698e-08
1.89997e-06
1.93702e-08
1.88613e-06
1.71857e-08
1.87344e-06
1.57128e-08
1.86179e-06
1.45703e-08
1.85129e-06
1.29863e-08
1.84187e-06
1.15133e-08
1.83329e-06
1.06119e-08
1.82571e-06
9.35014e-09
1.81907e-06
7.91745e-09
1.81306e-06
7.30606e-09
1.80777e-06
6.5012e-09
1.80327e-06
5.31518e-09
1.79932e-06
4.6192e-09
1.79581e-06
4.24445e-09
1.79289e-06
3.49913e-09
1.79048e-06
2.73408e-09
1.78835e-06
2.47162e-09
1.78653e-06
2.14627e-09
1.78504e-06
1.71102e-09
1.78385e-06
1.33289e-09
1.78287e-06
1.08499e-09
1.7821e-06
8.71041e-10
1.78154e-06
5.86734e-10
1.78114e-06
4.17255e-10
1.78088e-06
2.51999e-10
1.78073e-06
1.22505e-10
1.78067e-06
3.01477e-11
1.78069e-06
-5.85803e-11
1.78075e-06
-9.92893e-11
1.78083e-06
-1.12774e-10
1.78093e-06
-1.35331e-10
1.78101e-06
-8.71354e-11
1.78109e-06
-8.3605e-11
1.78112e-06
-4.72099e-12
1.78114e-06
1.56558e-11
1.78105e-06
1.41217e-10
1.78104e-06
1.2697e-10
1.06871e-09
4.49626e-06
6.12465e-08
4.5018e-06
8.42949e-08
4.50531e-06
1.00847e-07
4.50515e-06
1.07981e-07
4.50378e-06
1.10341e-07
4.50317e-06
1.11798e-07
4.50316e-06
1.15106e-07
4.50313e-06
1.19634e-07
4.5026e-06
1.24843e-07
4.50133e-06
1.30406e-07
4.49935e-06
1.36099e-07
4.49643e-06
1.42416e-07
4.4926e-06
1.48687e-07
4.4876e-06
1.55689e-07
4.48133e-06
1.62993e-07
4.47362e-06
1.70483e-07
4.46416e-06
1.77821e-07
4.45295e-06
1.84527e-07
4.43968e-06
1.9077e-07
4.42459e-06
1.96616e-07
4.40752e-06
2.02731e-07
4.3884e-06
2.07498e-07
4.3673e-06
2.08716e-07
4.34434e-06
2.05095e-07
4.31999e-06
1.96115e-07
4.29421e-06
1.82656e-07
4.26746e-06
1.63825e-07
4.24052e-06
1.42243e-07
4.21398e-06
1.21267e-07
4.18884e-06
1.02777e-07
4.16444e-06
9.0162e-08
4.1404e-06
8.20118e-08
4.11631e-06
7.74026e-08
4.09152e-06
7.59761e-08
4.06659e-06
7.40612e-08
4.04124e-06
7.31717e-08
4.01545e-06
7.33699e-08
3.98924e-06
7.37909e-08
3.96217e-06
7.54155e-08
3.93479e-06
7.5642e-08
3.90706e-06
7.55807e-08
3.87848e-06
7.73677e-08
3.84937e-06
7.7477e-08
3.82025e-06
7.56144e-08
3.79069e-06
7.5315e-08
3.76031e-06
7.58474e-08
3.72964e-06
7.53621e-08
3.69862e-06
7.48134e-08
3.66736e-06
7.38012e-08
3.63646e-06
7.1399e-08
3.60564e-06
6.95342e-08
3.57491e-06
6.86747e-08
3.54404e-06
6.76713e-08
3.51333e-06
6.5606e-08
3.4841e-06
6.14165e-08
3.45546e-06
5.85257e-08
3.42603e-06
5.93609e-08
3.39732e-06
5.7996e-08
3.37046e-06
5.23928e-08
3.34459e-06
4.8694e-08
3.31909e-06
4.80948e-08
3.29423e-06
4.64321e-08
3.27059e-06
4.30088e-08
3.2483e-06
3.94775e-08
3.22701e-06
3.69958e-08
3.20701e-06
3.45747e-08
3.18839e-06
3.16045e-08
3.17068e-06
2.92276e-08
3.15394e-06
2.73467e-08
3.13866e-06
2.46363e-08
3.12458e-06
2.19991e-08
3.11148e-06
2.04016e-08
3.09964e-06
1.83397e-08
3.08899e-06
1.59695e-08
3.07917e-06
1.44408e-08
3.07025e-06
1.31634e-08
3.06239e-06
1.13593e-08
3.05543e-06
9.68814e-09
3.04918e-06
8.72305e-09
3.04367e-06
7.65826e-09
3.03888e-06
6.5017e-09
3.03472e-06
5.48958e-09
3.03112e-06
4.68318e-09
3.02808e-06
3.91734e-09
3.02555e-06
3.11337e-09
3.02349e-06
2.48219e-09
3.02184e-06
1.90208e-09
3.02055e-06
1.41278e-09
3.01959e-06
9.8221e-10
3.01891e-06
6.24681e-10
3.01849e-06
3.20764e-10
3.01824e-06
1.32194e-10
3.01818e-06
-7.357e-11
3.01818e-06
-8.72215e-11
3.01832e-06
-2.16084e-10
3.01839e-06
-7.88344e-11
3.01859e-06
-1.82082e-10
3.01858e-06
1.50482e-10
3.01878e-06
-7.24013e-11
1.45229e-09
4.85719e-06
6.04976e-08
4.86121e-06
8.0279e-08
4.86566e-06
9.6392e-08
4.86732e-06
1.06329e-07
4.86692e-06
1.10737e-07
4.8668e-06
1.11917e-07
4.86743e-06
1.14479e-07
4.86876e-06
1.18298e-07
4.87039e-06
1.23212e-07
4.87187e-06
1.28929e-07
4.87324e-06
1.34729e-07
4.87447e-06
1.41192e-07
4.87561e-06
1.47543e-07
4.87667e-06
1.54631e-07
4.87756e-06
1.62102e-07
4.87836e-06
1.69682e-07
4.87879e-06
1.77387e-07
4.87895e-06
1.84371e-07
4.87865e-06
1.91075e-07
4.87805e-06
1.97211e-07
4.87734e-06
2.03444e-07
4.87626e-06
2.08582e-07
4.87478e-06
2.10195e-07
4.8725e-06
2.07366e-07
4.86942e-06
1.99196e-07
4.86517e-06
1.86912e-07
4.85923e-06
1.69764e-07
4.85202e-06
1.49448e-07
4.8439e-06
1.29393e-07
4.83573e-06
1.10945e-07
4.82772e-06
9.81656e-08
4.81963e-06
9.01092e-08
4.81141e-06
8.56245e-08
4.80263e-06
8.47544e-08
4.79345e-06
8.32362e-08
4.78385e-06
8.27764e-08
4.77383e-06
8.33837e-08
4.76361e-06
8.40169e-08
4.75285e-06
8.61699e-08
4.74174e-06
8.67596e-08
4.73028e-06
8.7036e-08
4.71832e-06
8.93272e-08
4.70593e-06
8.98708e-08
4.69323e-06
8.83089e-08
4.68016e-06
8.83921e-08
4.66627e-06
8.97294e-08
4.65175e-06
8.9888e-08
4.63667e-06
8.98901e-08
4.62088e-06
8.95876e-08
4.60476e-06
8.75212e-08
4.58822e-06
8.60759e-08
4.57127e-06
8.56266e-08
4.55393e-06
8.50055e-08
4.53609e-06
8.34469e-08
4.51852e-06
7.89895e-08
4.50102e-06
7.60248e-08
4.48255e-06
7.78353e-08
4.46394e-06
7.66061e-08
4.446e-06
7.03314e-08
4.4281e-06
6.65923e-08
4.40999e-06
6.62015e-08
4.39191e-06
6.45188e-08
4.37412e-06
6.07953e-08
4.35684e-06
5.67564e-08
4.33988e-06
5.39571e-08
4.32339e-06
5.1068e-08
4.30754e-06
4.74471e-08
4.29193e-06
4.48374e-08
4.27651e-06
4.27728e-08
4.26186e-06
3.92861e-08
4.24802e-06
3.58383e-08
4.23485e-06
3.35682e-08
4.22251e-06
3.06781e-08
4.21086e-06
2.76219e-08
4.19957e-06
2.57282e-08
4.18877e-06
2.39647e-08
4.17879e-06
2.13437e-08
4.16961e-06
1.8867e-08
4.16118e-06
1.71511e-08
4.15351e-06
1.53333e-08
4.14655e-06
1.34608e-08
4.14019e-06
1.1848e-08
4.13438e-06
1.04936e-08
4.12913e-06
9.16761e-09
4.12446e-06
7.77667e-09
4.12035e-06
6.59284e-09
4.11683e-06
5.42596e-09
4.1138e-06
4.44002e-09
4.11131e-06
3.47105e-09
4.10924e-06
2.69872e-09
4.10763e-06
1.92958e-09
4.10634e-06
1.41862e-09
4.10545e-06
8.16491e-10
4.10475e-06
6.13814e-10
4.10441e-06
1.24216e-10
4.10413e-06
2.08412e-10
4.10419e-06
-2.48905e-10
4.10414e-06
2.03572e-10
4.10445e-06
-3.79166e-10
1.48033e-09
5.24666e-06
6.0057e-08
5.24984e-06
7.70999e-08
5.25375e-06
9.24812e-08
5.25649e-06
1.03589e-07
5.25729e-06
1.09935e-07
5.25726e-06
1.11946e-07
5.25761e-06
1.14127e-07
5.25879e-06
1.17118e-07
5.26058e-06
1.21428e-07
5.26241e-06
1.27098e-07
5.26414e-06
1.32992e-07
5.26584e-06
1.39493e-07
5.26753e-06
1.45854e-07
5.26934e-06
1.52826e-07
5.27116e-06
1.60278e-07
5.27319e-06
1.67658e-07
5.27521e-06
1.75359e-07
5.27733e-06
1.8225e-07
5.27952e-06
1.88887e-07
5.28186e-06
1.94871e-07
5.28467e-06
2.00631e-07
5.2877e-06
2.05552e-07
5.29087e-06
2.07025e-07
5.29384e-06
2.04398e-07
5.29631e-06
1.96732e-07
5.29802e-06
1.852e-07
5.29826e-06
1.69524e-07
5.29712e-06
1.50582e-07
5.29494e-06
1.31576e-07
5.29237e-06
1.13519e-07
5.28996e-06
1.00573e-07
5.28759e-06
9.24774e-08
5.28534e-06
8.78713e-08
5.28297e-06
8.71315e-08