/*--------------------------------*- C++ -*----------------------------------*\
  =========                 |
  \\      /  F ield         | OpenFOAM: The Open Source CFD Toolbox
   \\    /   O peration     | Website:  https://openfoam.org
    \\  /    A nd           | Version:  10
     \\/     M anipulation  |
\*---------------------------------------------------------------------------*/
FoamFile
{
    format      ascii;
    class       volVectorField;
    location    "0.6";
    object      U;
}
// * * * * * * * * * * * * * * * * * * * * * * * * * * * * * * * * * * * * * //

dimensions      [0 1 -1 0 0 0 0];

internalField   nonuniform List<vector> 
4800
(
(0.960082 9.61352e-06 0)
(1.03936 -0.000252913 0)
(0.963427 5.97424e-05 0)
(1.03518 -0.000310678 0)
(0.966951 -3.56714e-06 0)
(1.03126 -0.00045397 0)
(0.969779 0.000262393 0)
(1.02803 -0.00037539 0)
(0.972976 0.000286874 0)
(1.02514 -0.000446077 0)
(0.976127 1.93344e-05 0)
(1.02213 -0.000724574 0)
(0.978598 -0.000187713 0)
(1.01913 -0.000758777 0)
(0.980683 -0.000287441 0)
(1.01614 -0.000640321 0)
(0.982412 -0.000133872 0)
(1.01319 -0.000496393 0)
(0.983248 0.000446416 0)
(1.00994 0.000840694 0)
(0.982467 -6.92665e-05 0)
(1.01501 -0.000181953 0)
(0.986222 3.25828e-05 0)
(1.01118 -0.000269719 0)
(0.989486 -2.54278e-05 0)
(1.0079 -0.000410799 0)
(0.991783 0.000242117 0)
(1.00559 -0.000380858 0)
(0.993916 0.000268821 0)
(1.00393 -0.000522639 0)
(0.995812 -1.41273e-06 0)
(1.00241 -0.00080544 0)
(0.996836 -0.000199986 0)
(1.00097 -0.00084645 0)
(0.997361 -0.000296336 0)
(0.999661 -0.000712134 0)
(0.997495 -1.97713e-05 0)
(0.998457 -0.00017938 0)
(0.997027 0.00125464 0)
(0.996956 0.00207025 0)
(0.99585 3.33087e-05 0)
(1.0028 -0.000258351 0)
(0.997177 0.000122023 0)
(1.0015 -0.000318284 0)
(0.998026 4.26246e-05 0)
(1.00041 -0.000395095 0)
(0.998444 0.000201629 0)
(1.00002 -0.000293066 0)
(0.998844 0.000138673 0)
(0.99993 -0.000332181 0)
(0.999379 -0.000170189 0)
(0.999739 -0.00049942 0)
(0.999353 -0.000421396 0)
(0.999353 -0.000555021 0)
(0.999064 -0.00049149 0)
(0.998836 -0.000390451 0)
(0.998646 -5.57714e-05 0)
(0.998314 0.000489804 0)
(0.997838 0.00143893 0)
(0.997415 0.00240897 0)
(0.999415 -3.87513e-06 0)
(1.00024 -0.00026032 0)
(0.999631 9.01057e-05 0)
(0.999976 -0.000313124 0)
(0.999631 -1.0764e-05 0)
(0.999587 -0.00036974 0)
(0.999526 0.000140181 0)
(0.999649 -0.00021871 0)
(0.999589 1.23939e-05 0)
(0.999755 -0.000240546 0)
(0.999835 -0.000321956 0)
(0.999755 -0.000445247 0)
(0.999698 -0.00053121 0)
(0.999538 -0.000501264 0)
(0.999385 -0.000549782 0)
(0.999125 -0.00023354 0)
(0.999003 0.000145125 0)
(0.998715 0.000724959 0)
(0.998305 0.0015667 0)
(0.997911 0.00246566 0)
(0.99997 2.9451e-05 0)
(0.999957 -0.000221414 0)
(0.999991 7.33455e-05 0)
(0.99987 -0.000231966 0)
(0.99987 -4.62977e-05 0)
(0.999605 -0.000247176 0)
(0.999702 2.46521e-05 0)
(0.999713 -8.06112e-05 0)
(0.999778 -0.000129482 0)
(0.9998 -0.000160613 0)
(0.999922 -0.000361089 0)
(0.999817 -0.000444277 0)
(0.999786 -0.000549182 0)
(0.999665 -0.000462329 0)
(0.999541 -0.000469725 0)
(0.999338 -1.70675e-05 0)
(0.999252 0.000466393 0)
(0.998982 0.0010111 0)
(0.998636 0.00175281 0)
(0.998251 0.00257479 0)
(1.00003 1.0847e-05 0)
(0.99994 -0.000215041 0)
(1.00004 2.34313e-05 0)
(0.999863 -0.000191612 0)
(0.999913 -0.000121286 0)
(0.999625 -0.000171035 0)
(0.999748 -6.66528e-05 0)
(0.999726 -3.31425e-05 0)
(0.999843 -0.000172659 0)
(0.999802 -0.000231409 0)
(0.999926 -0.000375907 0)
(0.999816 -0.0005015 0)
(0.999811 -0.000551855 0)
(0.99971 -0.000437211 0)
(0.999645 -0.00030178 0)
(0.999478 0.000224614 0)
(0.999417 0.000677699 0)
(0.999161 0.00117701 0)
(0.998879 0.00184749 0)
(0.998502 0.00261665 0)
(1.00004 1.34163e-05 0)
(0.999942 -0.000164244 0)
(1.00006 -3.5662e-05 0)
(0.999858 -0.000112485 0)
(0.99993 -0.000176758 0)
(0.999628 -9.44156e-05 0)
(0.999768 -0.000103551 0)
(0.999726 -6.86109e-05 0)
(0.999857 -0.000129328 0)
(0.999791 -0.000290422 0)
(0.999925 -0.000390631 0)
(0.999805 -0.00046395 0)
(0.999829 -0.000504033 0)
(0.999747 -0.000316183 0)
(0.999736 -4.0967e-05 0)
(0.999584 0.000413252 0)
(0.999544 0.000853406 0)
(0.999308 0.00132113 0)
(0.999085 0.00194279 0)
(0.998727 0.00265949 0)
(1.00004 7.75824e-06 0)
(0.999943 -0.000119858 0)
(1.00007 -0.000102632 0)
(0.999854 -5.62626e-05 0)
(0.999939 -0.000213505 0)
(0.999635 -8.9222e-05 0)
(0.999775 -7.18089e-05 0)
(0.999728 -0.000152381 0)
(0.99986 -0.000130933 0)
(0.999771 -0.000287652 0)
(0.999921 -0.000442393 0)
(0.999799 -0.000441062 0)
(0.999855 -0.000430807 0)
(0.999804 -0.000146519 0)
(0.999822 0.000147196 0)
(0.999685 0.000542971 0)
(0.999666 0.000978258 0)
(0.999456 0.00143639 0)
(0.999285 0.00202055 0)
(0.99895 0.00268417 0)
(1.00004 1.97881e-06 0)
(0.999942 -7.07961e-05 0)
(1.00008 -0.000162121 0)
(0.999853 -2.90859e-05 0)
(0.999942 -0.000191419 0)
(0.999646 -0.000126069 0)
(0.999776 -2.86934e-05 0)
(0.999726 -0.000178667 0)
(0.99986 -0.000196148 0)
(0.999752 -0.000282614 0)
(0.999917 -0.000425252 0)
(0.999812 -0.000417382 0)
(0.999898 -0.000267725 0)
(0.999867 3.13349e-05 0)
(0.999901 0.000312527 0)
(0.999785 0.000677159 0)
(0.999788 0.0011025 0)
(0.999606 0.00155246 0)
(0.999478 0.00209682 0)
(0.999171 0.00270956 0)
(1.00004 -2.26748e-06 0)
(0.999937 -2.94804e-05 0)
(1.00009 -0.000189836 0)
(0.999855 -5.53959e-05 0)
(0.999938 -0.000137981 0)
(0.999658 -0.000170038 0)
(0.999778 -3.58173e-05 0)
(0.999714 -0.000144568 0)
(0.999857 -0.000257278 0)
(0.999743 -0.000289406 0)
(0.99991 -0.000352268 0)
(0.999834 -0.000325244 0)
(0.999954 -0.000122528 0)
(0.999933 0.000176205 0)
(0.999981 0.000460152 0)
(0.99989 0.000800642 0)
(0.999916 0.00120316 0)
(0.99976 0.00164304 0)
(0.999671 0.00215509 0)
(0.999391 0.00272218 0)
(1.00004 -5.09251e-06 0)
(0.999931 -1.45138e-06 0)
(1.00008 -0.000175983 0)
(0.999861 -0.00012158 0)
(0.999934 -8.27548e-05 0)
(0.999662 -0.000176091 0)
(0.999784 -7.8513e-05 0)
(0.9997 -0.000126395 0)
(0.999845 -0.000245742 0)
(0.999742 -0.000330044 0)
(0.999918 -0.00027763 0)
(0.999864 -0.000159758 0)
(1.00001 5.84183e-06 0)
(1 0.000275889 0)
(1.00006 0.000567209 0)
(0.999991 0.000900039 0)
(1.00004 0.00128151 0)
(0.999917 0.001715 0)
(0.999862 0.00220213 0)
(0.999608 0.00272422 0)
(1.00004 -6.36055e-06 0)
(0.999924 1.03956e-05 0)
(1.00008 -0.000132195 0)
(0.999867 -0.000190344 0)
(0.999932 -8.16114e-05 0)
(0.999661 -0.000133111 0)
(0.999787 -0.000121982 0)
(0.999692 -0.000150016 0)
(0.999828 -0.000191868 0)
(0.999742 -0.000287747 0)
(0.999949 -0.000224433 0)
(0.999898 -1.58254e-05 0)
(1.00006 0.000155371 0)
(1.00007 0.000383799 0)
(1.00015 0.000673344 0)
(1.0001 0.00100727 0)
(1.00018 0.00137244 0)
(1.00008 0.00179356 0)
(1.00005 0.00225369 0)
(0.999823 0.00273184 0)
(1.00005 -4.73802e-06 0)
(0.99992 1.86428e-06 0)
(1.00006 -8.26744e-05 0)
(0.999867 -0.00021615 0)
(0.999941 -0.000135468 0)
(0.999658 -8.64793e-05 0)
(0.999783 -0.000116968 0)
(0.999692 -0.00018774 0)
(0.999823 -0.000154613 0)
(0.99974 -0.000169198 0)
(0.999979 -0.000151618 0)
(0.999953 7.0213e-05 0)
(1.00011 0.000294212 0)
(1.00015 0.000509802 0)
(1.00024 0.000785869 0)
(1.00021 0.00110848 0)
(1.00031 0.00145394 0)
(1.00025 0.00185159 0)
(1.00025 0.00228187 0)
(1.00003 0.00272464 0)
(1.00005 -4.26032e-06 0)
(0.999918 -1.73012e-05 0)
(1.00005 -4.06685e-05 0)
(0.999862 -0.00018154 0)
(0.999951 -0.000211553 0)
(0.999666 -9.32908e-05 0)
(0.999773 -6.31788e-05 0)
(0.99969 -0.000183659 0)
(0.999835 -0.000145115 0)
(0.999746 -4.68396e-05 0)
(1.00001 -1.89933e-05 0)
(1.00001 0.000136181 0)
(1.00018 0.000374345 0)
(1.00022 0.00059586 0)
(1.00034 0.000856333 0)
(1.00033 0.00117909 0)
(1.00046 0.00151886 0)
(1.00042 0.00189603 0)
(1.00044 0.00229875 0)
(1.00024 0.00270774 0)
(1.00005 -3.07613e-06 0)
(0.999921 -3.41803e-05 0)
(1.00005 -2.57662e-05 0)
(0.999847 -0.00012258 0)
(0.999957 -0.000255523 0)
(0.999685 -0.000154739 0)
(0.999771 -1.83792e-05 0)
(0.999682 -0.000103075 0)
(0.999858 -0.000132496 0)
(0.999773 3.57563e-05 0)
(1.00003 0.000132476 0)
(1.00006 0.000249589 0)
(1.00025 0.000470051 0)
(1.0003 0.000696031 0)
(1.00045 0.000942179 0)
(1.00046 0.00125732 0)
(1.0006 0.00158807 0)
(1.00059 0.00193867 0)
(1.00063 0.00230969 0)
(1.00046 0.00268179 0)
(1.00005 -7.13807e-06 0)
(0.999922 -2.90478e-05 0)
(1.00005 -5.34533e-05 0)
(0.999832 -5.8179e-05 0)
(0.999951 -0.000226473 0)
(0.999713 -0.000237129 0)
(0.999788 -2.24272e-05 0)
(0.999674 1.62173e-05 0)
(0.999875 -4.50899e-05 0)
(0.999818 7.16119e-05 0)
(1.00007 0.000236387 0)
(1.00011 0.00037235 0)
(1.00032 0.000566057 0)
(1.00038 0.000788953 0)
(1.00055 0.00102783 0)
(1.00059 0.00132214 0)
(1.00076 0.00164447 0)
(1.00076 0.0019722 0)
(1.00082 0.00231525 0)
(1.00067 0.00265635 0)
(1.00005 -1.11527e-05 0)
(0.999922 -1.37873e-05 0)
(1.00005 -8.46958e-05 0)
(0.999824 -3.42933e-05 0)
(0.999932 -0.000147589 0)
(0.999731 -0.000262158 0)
(0.999829 -9.41216e-05 0)
(0.999686 9.40105e-05 0)
(0.999882 0.000116456 0)
(0.999856 0.000165393 0)
(1.00012 0.00029653 0)
(1.00017 0.000456926 0)
(1.0004 0.000647136 0)
(1.00047 0.000867942 0)
(1.00066 0.00110361 0)
(1.00073 0.0013796 0)
(1.00091 0.00169055 0)
(1.00094 0.00199831 0)
(1.00102 0.00231618 0)
(1.00087 0.00262789 0)
(1.00005 -1.46423e-05 0)
(0.999917 -1.66079e-06 0)
(1.00005 -9.50527e-05 0)
(0.999824 -5.94323e-05 0)
(0.999912 -6.44211e-05 0)
(0.99973 -0.000198676 0)
(0.999873 -0.000151592 0)
(0.999732 8.37248e-05 0)
(0.999903 0.000256418 0)
(0.999877 0.000323636 0)
(1.00017 0.000397047 0)
(1.00024 0.000533583 0)
(1.00048 0.000724415 0)
(1.00057 0.000938613 0)
(1.00078 0.00116698 0)
(1.00087 0.00142622 0)
(1.00107 0.00172204 0)
(1.00111 0.00201177 0)
(1.0012 0.00230593 0)
(1.00107 0.00258984 0)
(1.00005 -1.44331e-05 0)
(0.999912 -4.49402e-07 0)
(1.00004 -7.30574e-05 0)
(0.999831 -9.60461e-05 0)
(0.999905 -2.16391e-05 0)
(0.999716 -8.64609e-05 0)
(0.999902 -0.000124006 0)
(0.999797 3.63037e-05 0)
(0.999956 0.000294352 0)
(0.999904 0.000465585 0)
(1.0002 0.000543403 0)
(1.0003 0.000630837 0)
(1.00056 0.000791989 0)
(1.00067 0.000994731 0)
(1.00089 0.00122071 0)
(1.00101 0.00145567 0)
(1.00123 0.00173474 0)
(1.00129 0.00201209 0)
(1.00139 0.00228167 0)
(1.00127 0.00254569 0)
(1.00005 -1.1255e-05 0)
(0.99991 -1.18818e-05 0)
(1.00003 -4.38378e-05 0)
(0.999836 -0.000105684 0)
(0.999914 -2.04657e-05 0)
(0.999708 2.0315e-05 0)
(0.999908 -1.4405e-06 0)
(0.999854 4.76608e-05 0)
(1.00004 0.00026734 0)
(0.999964 0.000524155 0)
(1.00023 0.000674215 0)
(1.00034 0.000759118 0)
(1.00063 0.000881068 0)
(1.00077 0.00105424 0)
(1.00101 0.00127098 0)
(1.00115 0.00148111 0)
(1.0014 0.00173152 0)
(1.00146 0.00199972 0)
(1.00157 0.00224323 0)
(1.00146 0.0024928 0)
(1.00005 -7.74456e-06 0)
(0.999911 -2.22454e-05 0)
(1.00003 -2.40853e-05 0)
(0.999838 -7.47054e-05 0)
(0.999935 -3.24818e-05 0)
(0.999721 8.2452e-05 0)
(0.999912 0.000135701 0)
(0.999883 0.000150172 0)
(1.00012 0.00027179 0)
(1.00005 0.000518438 0)
(1.00029 0.000740572 0)
(1.00038 0.000872966 0)
(1.00069 0.000989526 0)
(1.00086 0.00112413 0)
(1.00112 0.00131699 0)
(1.00128 0.00151268 0)
(1.00156 0.0017232 0)
(1.00164 0.00197308 0)
(1.00176 0.00219261 0)
(1.00164 0.00242162 0)
(1.00005 -4.71782e-06 0)
(0.999913 -2.86718e-05 0)
(1.00003 -1.81343e-05 0)
(0.999837 -2.76799e-05 0)
(0.999956 -1.16719e-05 0)
(0.999756 0.000106168 0)
(0.999931 0.000236219 0)
(0.999903 0.000287021 0)
(1.00018 0.000351849 0)
(1.00015 0.000521939 0)
(1.00038 0.000751264 0)
(1.00046 0.000934195 0)
(1.00076 0.00108017 0)
(1.00094 0.00120331 0)
(1.00123 0.00136438 0)
(1.0014 0.00154589 0)
(1.00171 0.00171868 0)
(1.00181 0.00193782 0)
(1.00193 0.00213787 0)
(1.00183 0.00233942 0)
(1.00005 -3.72544e-06 0)
(0.999915 -2.09906e-05 0)
(1.00003 -1.34607e-05 0)
(0.999842 9.8717e-06 0)
(0.999974 4.26788e-05 0)
(0.999798 0.000131941 0)
(0.999974 0.000289394 0)
(0.999929 0.000402692 0)
(1.00021 0.000464316 0)
(1.00023 0.000576107 0)
(1.00048 0.000760703 0)
(1.00055 0.000955725 0)
(1.00084 0.0011328 0)
(1.00102 0.00127166 0)
(1.00133 0.00141473 0)
(1.00152 0.00157617 0)
(1.00185 0.00171768 0)
(1.00197 0.00190333 0)
(1.00211 0.00208182 0)
(1.00201 0.00225413 0)
(1.00005 -2.55931e-06 0)
(0.999917 -1.01547e-05 0)
(1.00004 -4.81451e-06 0)
(0.999854 4.10373e-05 0)
(0.999993 0.000106314 0)
(0.999837 0.000188752 0)
(1.00003 0.000329077 0)
(0.999973 0.000475442 0)
(1.00025 0.00057495 0)
(1.00029 0.000663962 0)
(1.00057 0.000800781 0)
(1.00065 0.00096664 0)
(1.00094 0.00115174 0)
(1.00112 0.00130555 0)
(1.00144 0.00144897 0)
(1.00162 0.00160281 0)
(1.00197 0.00171843 0)
(1.00212 0.00186948 0)
(1.00226 0.0020251 0)
(1.00218 0.00216668 0)
(1.00005 1.29277e-06 0)
(0.999918 6.30746e-07 0)
(1.00005 1.72134e-05 0)
(0.999874 6.41565e-05 0)
(1.00002 0.000158597 0)
(0.999875 0.000252606 0)
(1.00008 0.00037841 0)
(1.00003 0.000523351 0)
(1.0003 0.000654897 0)
(1.00034 0.000755744 0)
(1.00064 0.000866512 0)
(1.00075 0.000995245 0)
(1.00105 0.00115865 0)
(1.00122 0.0013163 0)
(1.00155 0.00145309 0)
(1.00173 0.00161218 0)
(1.00207 0.00171888 0)
(1.00225 0.00183125 0)
(1.0024 0.00196632 0)
(1.00233 0.00207652 0)
(1.00005 4.53196e-06 0)
(0.999921 1.56728e-05 0)
(1.00005 4.35433e-05 0)
(0.999893 9.95751e-05 0)
(1.00005 0.000199115 0)
(0.999915 0.000317142 0)
(1.00013 0.000435041 0)
(1.00009 0.000569213 0)
(1.00036 0.000703645 0)
(1.0004 0.000826398 0)
(1.0007 0.000935438 0)
(1.00083 0.0010409 0)
(1.00115 0.0011694 0)
(1.00132 0.00131732 0)
(1.00166 0.00144149 0)
(1.00184 0.00158761 0)
(1.00216 0.00170804 0)
(1.00236 0.00179014 0)
(1.00252 0.00190432 0)
(1.00246 0.00199015 0)
(1.00005 1.17996e-05 0)
(0.999923 2.83963e-05 0)
(1.00006 7.40972e-05 0)
(0.999917 0.000134803 0)
(1.00009 0.000242345 0)
(0.99996 0.000368151 0)
(1.00018 0.000497662 0)
(1.00015 0.000616347 0)
(1.00043 0.000748728 0)
(1.00046 0.000871883 0)
(1.00077 0.000990444 0)
(1.0009 0.00108858 0)
(1.00124 0.00118728 0)
(1.00142 0.0013101 0)
(1.00177 0.0014252 0)
(1.00196 0.00153865 0)
(1.00226 0.00166563 0)
(1.00245 0.00174072 0)
(1.00262 0.00182928 0)
(1.00256 0.00190444 0)
(1.00005 1.77618e-05 0)
(0.999928 4.72297e-05 0)
(1.00007 0.00010664 0)
(0.999938 0.000174444 0)
(1.00013 0.000281254 0)
(1.00001 0.000410156 0)
(1.00024 0.000547095 0)
(1.00021 0.000667025 0)
(1.00049 0.000784508 0)
(1.00053 0.000905478 0)
(1.00083 0.001023 0)
(1.00096 0.00112619 0)
(1.0013 0.00121323 0)
(1.00151 0.00130189 0)
(1.00185 0.00140417 0)
(1.00206 0.00149335 0)
(1.00236 0.00159628 0)
(1.00252 0.00167671 0)
(1.0027 0.00173999 0)
(1.00264 0.00180957 0)
(1.00005 2.55486e-05 0)
(0.999933 6.37433e-05 0)
(1.00009 0.00013506 0)
(0.999961 0.000218569 0)
(1.00016 0.000324157 0)
(1.00006 0.000451251 0)
(1.00029 0.000589521 0)
(1.00026 0.000714079 0)
(1.00055 0.000823536 0)
(1.00059 0.000930795 0)
(1.0009 0.00104015 0)
(1.00102 0.00113973 0)
(1.00136 0.00122877 0)
(1.00157 0.00129568 0)
(1.00193 0.00136979 0)
(1.00213 0.00144763 0)
(1.00244 0.00151836 0)
(1.0026 0.00159035 0)
(1.00277 0.00164138 0)
(1.0027 0.00169569 0)
(1.00005 3.25387e-05 0)
(0.999938 8.50792e-05 0)
(1.0001 0.000165462 0)
(0.999983 0.00025668 0)
(1.0002 0.000364143 0)
(1.00011 0.000486581 0)
(1.00035 0.000621329 0)
(1.00031 0.000746535 0)
(1.0006 0.000858777 0)
(1.00065 0.000956754 0)
(1.00096 0.0010544 0)
(1.00108 0.00114158 0)
(1.00141 0.0012261 0)
(1.00161 0.0012916 0)
(1.00197 0.0013366 0)
(1.00219 0.00139389 0)
(1.0025 0.00144616 0)
(1.00265 0.00149318 0)
(1.00281 0.00153632 0)
(1.00275 0.00156828 0)
(1.00005 3.88247e-05 0)
(0.999944 0.000104437 0)
(1.00012 0.000191051 0)
(1.00001 0.000291597 0)
(1.00023 0.00040328 0)
(1.00015 0.00052039 0)
(1.0004 0.000648777 0)
(1.00037 0.000771748 0)
(1.00065 0.000881968 0)
(1.0007 0.000974229 0)
(1.00101 0.00106316 0)
(1.00113 0.00113886 0)
(1.00145 0.00120536 0)
(1.00163 0.00126954 0)
(1.00199 0.00130684 0)
(1.00222 0.0013327 0)
(1.00252 0.00136995 0)
(1.00267 0.00139467 0)
(1.00283 0.00142128 0)
(1.00277 0.0014375 0)
(1.00005 4.44038e-05 0)
(0.999948 0.000123097 0)
(1.00013 0.000215244 0)
(1.00003 0.000320004 0)
(1.00026 0.000433839 0)
(1.00019 0.000546653 0)
(1.00045 0.00066803 0)
(1.00042 0.000784642 0)
(1.0007 0.000894754 0)
(1.00074 0.000982173 0)
(1.00105 0.00106139 0)
(1.00116 0.00113365 0)
(1.00149 0.00118472 0)
(1.00166 0.00122978 0)
(1.00199 0.00127085 0)
(1.00221 0.00127548 0)
(1.00252 0.00128717 0)
(1.00266 0.00129588 0)
(1.00281 0.00129767 0)
(1.00275 0.00130244 0)
(1.00005 4.82789e-05 0)
(0.999953 0.000138637 0)
(1.00014 0.000235322 0)
(1.00005 0.000339904 0)
(1.00029 0.000455081 0)
(1.00023 0.000566189 0)
(1.00049 0.000680352 0)
(1.00047 0.000787458 0)
(1.00074 0.000892034 0)
(1.00078 0.000980678 0)
(1.00108 0.00104915 0)
(1.00118 0.00111103 0)
(1.00149 0.00116111 0)
(1.00167 0.00118165 0)
(1.00197 0.00121243 0)
(1.00216 0.00121623 0)
(1.00247 0.00120032 0)
(1.00261 0.00119296 0)
(1.00276 0.00117119 0)
(1.00269 0.00115994 0)
(1.00005 5.17335e-05 0)
(0.999956 0.000148265 0)
(1.00015 0.000249113 0)
(1.00007 0.000352728 0)
(1.00031 0.000465419 0)
(1.00026 0.00057196 0)
(1.00053 0.000679426 0)
(1.00051 0.000779073 0)
(1.00079 0.00087464 0)
(1.00081 0.000960073 0)
(1.0011 0.00102843 0)
(1.0012 0.00107457 0)
(1.00149 0.00112161 0)
(1.00164 0.00113476 0)
(1.00195 0.00113734 0)
(1.00209 0.00114094 0)
(1.00238 0.00110868 0)
(1.00251 0.00107937 0)
(1.00265 0.0010428 0)
(1.00259 0.001009 0)
(1.00005 5.30333e-05 0)
(0.999961 0.000152652 0)
(1.00016 0.000254922 0)
(1.00008 0.000355051 0)
(1.00034 0.000462046 0)
(1.00029 0.000563857 0)
(1.00056 0.000664023 0)
(1.00055 0.000755672 0)
(1.00082 0.000842473 0)
(1.00085 0.000918651 0)
(1.00112 0.000987842 0)
(1.0012 0.00102938 0)
(1.00147 0.00106426 0)
(1.00159 0.00107963 0)
(1.00188 0.00106084 0)
(1.00201 0.00104538 0)
(1.00225 0.00100568 0)
(1.00236 0.000951071 0)
(1.00249 0.000901481 0)
(1.00244 0.000845544 0)
(1.00005 5.28191e-05 0)
(0.999964 0.000150169 0)
(1.00017 0.000250062 0)
(1.0001 0.000345358 0)
(1.00036 0.000445496 0)
(1.00031 0.000538837 0)
(1.00059 0.000631361 0)
(1.00058 0.00071365 0)
(1.00085 0.000790811 0)
(1.00088 0.000855778 0)
(1.00114 0.000917401 0)
(1.0012 0.000959766 0)
(1.00145 0.000989248 0)
(1.00153 0.00101126 0)
(1.00178 0.00100129 0)
(1.00188 0.00097353 0)
(1.00208 0.000933755 0)
(1.00216 0.000861761 0)
(1.00228 0.000788014 0)
(1.00224 0.000703086 0)
(1.00005 4.96549e-05 0)
(0.999968 0.000141245 0)
(1.00018 0.000233766 0)
(1.00011 0.000321708 0)
(1.00037 0.000411221 0)
(1.00033 0.000495028 0)
(1.00061 0.000577172 0)
(1.0006 0.000650762 0)
(1.00087 0.00071894 0)
(1.00089 0.000774064 0)
(1.00115 0.000821076 0)
(1.0012 0.000852872 0)
(1.00144 0.000865455 0)
(1.0015 0.00086994 0)
(1.0017 0.000859007 0)
(1.00175 0.000826171 0)
(1.00188 0.000794233 0)
(1.00189 0.000744032 0)
(1.00195 0.000691894 0)
(1.00189 0.000636172 0)
(1.00005 4.41974e-05 0)
(0.999971 0.000125732 0)
(1.00018 0.000205162 0)
(1.00012 0.000281067 0)
(1.00039 0.000355849 0)
(1.00035 0.000425422 0)
(1.00063 0.000492553 0)
(1.00062 0.000552917 0)
(1.00089 0.000609713 0)
(1.0009 0.00065612 0)
(1.00114 0.000694304 0)
(1.00116 0.000721216 0)
(1.00137 0.000731046 0)
(1.0014 0.000725213 0)
(1.00157 0.000710642 0)
(1.00162 0.000673558 0)
(1.00176 0.000631209 0)
(1.00179 0.000579732 0)
(1.00186 0.000524264 0)
(1.00182 0.000470628 0)
(1.00005 3.83251e-05 0)
(0.999972 0.000110126 0)
(1.00019 0.000180978 0)
(1.00012 0.000248 0)
(1.00039 0.000314905 0)
(1.00036 0.000376244 0)
(1.00064 0.000436004 0)
(1.00063 0.000489521 0)
(1.0009 0.000541064 0)
(1.00091 0.000585013 0)
(1.00115 0.000623986 0)
(1.00116 0.000655031 0)
(1.00135 0.000677746 0)
(1.00135 0.000683629 0)
(1.00148 0.000679305 0)
(1.00145 0.000653025 0)
(1.00153 0.00060886 0)
(1.00148 0.000549472 0)
(1.0015 0.000479229 0)
(1.00143 0.000407147 0)
(1.00005 1.76268e-05 0)
(0.999976 5.22192e-05 0)
(1.00019 8.68155e-05 0)
(1.00014 0.000120176 0)
(1.00041 0.000153723 0)
(1.00038 0.000185146 0)
(1.00067 0.000215672 0)
(1.00066 0.000243769 0)
(1.00093 0.00027037 0)
(1.00093 0.000294001 0)
(1.00116 0.000314218 0)
(1.00116 0.000329183 0)
(1.00132 0.000339557 0)
(1.0013 0.000341863 0)
(1.0014 0.000339254 0)
(1.00134 0.000329968 0)
(1.00138 0.000314476 0)
(1.00129 0.000294939 0)
(1.0013 0.000272688 0)
(1.00123 0.000250501 0)
(0.983989 0.00222147 0)
(0.959921 0.00333395 0)
(0.935594 0.0036972 0)
(0.910823 0.00369214 0)
(0.885583 0.00362776 0)
(0.859994 0.00359701 0)
(0.834071 0.0035904 0)
(0.807811 0.00357722 0)
(0.781142 0.00354926 0)
(0.753976 0.00350384 0)
(0.726393 0.00345878 0)
(0.698198 0.00340601 0)
(0.669607 0.00335057 0)
(0.640418 0.00329869 0)
(0.610786 0.00324444 0)
(0.580511 0.0031839 0)
(0.549823 0.00310213 0)
(0.518811 0.00300797 0)
(0.487685 0.00289209 0)
(0.456612 0.00280446 0)
(0.425351 0.00273157 0)
(0.394195 0.00260375 0)
(0.363531 0.00237049 0)
(0.334244 0.00203265 0)
(0.307164 0.0016321 0)
(0.283061 0.00116252 0)
(0.263 0.000585845 0)
(0.247496 8.01669e-05 0)
(0.236296 -0.000262449 0)
(0.228515 -0.000442742 0)
(0.222992 -0.000507267 0)
(0.219037 -0.000482171 0)
(0.21604 -0.000448321 0)
(0.213514 -0.000395737 0)
(0.211292 -0.000339336 0)
(0.209154 -0.000291258 0)
(0.207019 -0.000240586 0)
(0.204803 -0.000199763 0)
(0.202428 -0.000159264 0)
(0.199942 -0.000120826 0)
(0.197362 -9.75887e-05 0)
(0.194664 -7.31019e-05 0)
(0.191904 -5.20542e-05 0)
(0.189173 -4.59575e-05 0)
(0.186525 -3.83024e-05 0)
(0.183894 -1.95315e-05 0)
(0.181254 -7.59129e-06 0)
(0.178621 -1.0094e-05 0)
(0.176074 -5.63832e-06 0)
(0.173667 4.24557e-06 0)
(0.171368 2.10178e-06 0)
(0.16915 -7.48992e-07 0)
(0.167032 7.46557e-06 0)
(0.164969 1.30116e-05 0)
(0.163053 7.14732e-06 0)
(0.161356 5.47828e-07 0)
(0.159753 1.37774e-05 0)
(0.158065 2.16994e-05 0)
(0.156493 1.13231e-05 0)
(0.155192 6.21705e-06 0)
(0.154026 1.20304e-05 0)
(0.152823 1.4216e-05 0)
(0.151709 1.14793e-05 0)
(0.150752 8.6841e-06 0)
(0.149932 8.73506e-06 0)
(0.149163 9.85195e-06 0)
(0.148481 8.35286e-06 0)
(0.147878 7.15347e-06 0)
(0.147354 7.85479e-06 0)
(0.146863 6.31493e-06 0)
(0.146481 3.84119e-06 0)
(0.14613 4.99163e-06 0)
(0.145832 4.50104e-06 0)
(0.145554 2.12634e-06 0)
(0.145378 1.98944e-06 0)
(0.145178 3.01341e-06 0)
(0.145036 2.02358e-06 0)
(0.144896 5.83037e-07 0)
(0.144833 9.40572e-07 0)
(0.144723 9.22318e-07 0)
(0.14468 3.37973e-07 0)
(0.144605 -2.60477e-08 0)
(0.144604 -6.60186e-08 0)
(0.144544 4.06165e-08 0)
(0.144566 -2.95368e-07 0)
(0.144519 -2.0034e-07 0)
(0.144564 -3.04149e-07 0)
(0.144521 -2.8682e-07 0)
(0.144579 -2.92567e-07 0)
(0.144534 -2.73026e-07 0)
(0.144603 -2.4855e-07 0)
(0.14455 -1.50525e-07 0)
(0.144625 -2.21635e-07 0)
(0.144558 -3.95915e-08 0)
(0.144637 -8.45522e-08 0)
(0.144552 1.58502e-07 0)
(0.144635 1.50982e-07 0)
(0.144522 1.73552e-07 0)
(0.144621 9.321e-07 0)
(0.144422 1.58123e-06 0)
(0.996438 0.00412517 0)
(0.99562 0.00578687 0)
(0.994366 0.00641237 0)
(0.992762 0.00641033 0)
(0.990614 0.00627888 0)
(0.987993 0.00622069 0)
(0.984834 0.0062481 0)
(0.981099 0.00631144 0)
(0.976773 0.0063757 0)
(0.97167 0.00643467 0)
(0.965931 0.00649506 0)
(0.959287 0.00656291 0)
(0.951929 0.0066259 0)
(0.943645 0.00669357 0)
(0.934486 0.00676639 0)
(0.92434 0.0068299 0)
(0.913146 0.00686709 0)
(0.901016 0.00687227 0)
(0.88785 0.00683655 0)
(0.873799 0.00679262 0)
(0.858684 0.00674943 0)
(0.842568 0.00667331 0)
(0.825684 0.00651878 0)
(0.808185 0.00621862 0)
(0.790658 0.00575275 0)
(0.773247 0.00512764 0)
(0.756644 0.00434832 0)
(0.741393 0.00353386 0)
(0.727318 0.00278086 0)
(0.714687 0.00217061 0)
(0.702848 0.00171531 0)
(0.691619 0.00140438 0)
(0.681146 0.00119591 0)
(0.670776 0.00104813 0)
(0.660898 0.000936418 0)
(0.651318 0.000857681 0)
(0.641842 0.000814053 0)
(0.632603 0.000786126 0)
(0.623297 0.000770191 0)
(0.614055 0.00074158 0)
(0.605031 0.000716056 0)
(0.595945 0.000711732 0)
(0.586878 0.000679644 0)
(0.578117 0.000633852 0)
(0.569605 0.000602927 0)
(0.561016 0.000575061 0)
(0.552716 0.00055771 0)
(0.544698 0.000535055 0)
(0.536644 0.000492928 0)
(0.528897 0.000449776 0)
(0.521684 0.000424108 0)
(0.514577 0.000403289 0)
(0.507504 0.000369644 0)
(0.500803 0.000340369 0)
(0.494774 0.000306924 0)
(0.488888 0.00026322 0)
(0.483043 0.000260231 0)
(0.477598 0.000256287 0)
(0.472667 0.000205979 0)
(0.467979 0.00017159 0)
(0.463632 0.000171927 0)
(0.459479 0.000160374 0)
(0.455657 0.000135072 0)
(0.452162 0.0001112 0)
(0.448998 9.78237e-05 0)
(0.446073 9.04011e-05 0)
(0.443484 7.54212e-05 0)
(0.441058 6.18493e-05 0)
(0.438933 5.81542e-05 0)
(0.437005 4.91819e-05 0)
(0.43534 3.60021e-05 0)
(0.433761 3.46799e-05 0)
(0.432495 3.14608e-05 0)
(0.431278 2.184e-05 0)
(0.430315 1.75699e-05 0)
(0.429359 1.79811e-05 0)
(0.428684 1.37498e-05 0)
(0.42797 8.35496e-06 0)
(0.427501 8.32444e-06 0)
(0.426956 7.66283e-06 0)
(0.42665 5.42645e-06 0)
(0.426241 3.56465e-06 0)
(0.426077 2.81536e-06 0)
(0.425768 2.40954e-06 0)
(0.425725 9.85548e-07 0)
(0.425487 6.24371e-07 0)
(0.425544 4.08773e-08 0)
(0.425352 -2.44549e-07 0)
(0.425482 -3.44009e-07 0)
(0.425317 -6.28236e-07 0)
(0.425497 -5.57945e-07 0)
(0.425336 -4.33485e-07 0)
(0.42555 -4.5201e-07 0)
(0.425369 -7.03152e-08 0)
(0.425605 -5.00608e-09 0)
(0.425389 3.06918e-07 0)
(0.425635 6.50351e-07 0)
(0.425375 8.9481e-07 0)
(0.425617 1.5267e-06 0)
(0.425323 7.21547e-06 0)
(0.996903 0.00364783 0)
(0.996487 0.00473943 0)
(0.996173 0.0053886 0)
(0.996087 0.00556193 0)
(0.996044 0.00554704 0)
(0.996091 0.00552098 0)
(0.996139 0.00558571 0)
(0.996167 0.00570983 0)
(0.996141 0.00586768 0)
(0.995945 0.00603056 0)
(0.995648 0.00618891 0)
(0.995113 0.00636733 0)
(0.994412 0.00652888 0)
(0.993477 0.00671123 0)
(0.992263 0.00689812 0)
(0.990765 0.00708513 0)
(0.988836 0.0072507 0)
(0.986567 0.00737981 0)
(0.983843 0.00747955 0)
(0.980684 0.00755402 0)
(0.977082 0.00765154 0)
(0.972933 0.00770236 0)
(0.96845 0.00766807 0)
(0.963455 0.00744864 0)
(0.958155 0.00701559 0)
(0.952539 0.00641722 0)
(0.946717 0.00563621 0)
(0.941075 0.00477542 0)
(0.935376 0.00395377 0)
(0.92992 0.00324486 0)
(0.924491 0.00275766 0)
(0.918902 0.00243279 0)
(0.913569 0.00223005 0)
(0.907931 0.00212605 0)
(0.902431 0.00202251 0)
(0.896856 0.00194984 0)
(0.891119 0.00191993 0)
(0.885435 0.0018985 0)
(0.87949 0.00190693 0)
(0.873484 0.00188502 0)
(0.867428 0.0018469 0)
(0.861151 0.00185803 0)
(0.854843 0.00182911 0)
(0.848369 0.00174135 0)
(0.841933 0.00169262 0)
(0.835225 0.00166645 0)
(0.828471 0.00161543 0)
(0.821738 0.00156017 0)
(0.814769 0.00150296 0)
(0.807875 0.00142057 0)
(0.801107 0.00133868 0)
(0.794238 0.00129011 0)
(0.787474 0.00124608 0)
(0.780543 0.00116822 0)
(0.77402 0.00105998 0)
(0.767666 0.000984111 0)
(0.761074 0.000970002 0)
(0.754641 0.000923576 0)
(0.748689 0.000805481 0)
(0.742696 0.00072048 0)
(0.737029 0.000695349 0)
(0.731473 0.000652341 0)
(0.726125 0.000581496 0)
(0.721021 0.000513901 0)
(0.716211 0.000463853 0)
(0.711578 0.000419832 0)
(0.707417 0.000371293 0)
(0.703337 0.00032805 0)
(0.699532 0.000293934 0)
(0.695977 0.000254868 0)
(0.692801 0.000217483 0)
(0.689672 0.000194766 0)
(0.687037 0.000168182 0)
(0.684478 0.00013814 0)
(0.682291 0.00011877 0)
(0.680102 0.00010461 0)
(0.678392 8.544e-05 0)
(0.676632 6.79533e-05 0)
(0.675284 5.93901e-05 0)
(0.673871 4.98966e-05 0)
(0.672865 3.95264e-05 0)
(0.671745 3.07344e-05 0)
(0.671025 2.44894e-05 0)
(0.670147 1.90012e-05 0)
(0.669695 1.31127e-05 0)
(0.669014 9.15466e-06 0)
(0.668795 5.7161e-06 0)
(0.668274 2.94352e-06 0)
(0.668234 9.7078e-07 0)
(0.667845 -8.66164e-07 0)
(0.667941 -1.86521e-06 0)
(0.667648 -2.24837e-06 0)
(0.667847 -2.66767e-06 0)
(0.667603 -1.93856e-06 0)
(0.667866 -1.87219e-06 0)
(0.667642 -4.47778e-07 0)
(0.667919 -3.60786e-07 0)
(0.667704 1.91271e-06 0)
(0.667941 9.59908e-07 0)
(0.667753 1.2815e-05 0)
(0.997439 0.00346394 0)
(0.996968 0.00443319 0)
(0.996597 0.0051529 0)
(0.996468 0.00554221 0)
(0.99648 0.0056879 0)
(0.996659 0.00571147 0)
(0.996919 0.00575239 0)
(0.997256 0.00584583 0)
(0.9976 0.0059889 0)
(0.997926 0.00616086 0)
(0.998247 0.00632861 0)
(0.998527 0.00651773 0)
(0.998804 0.00669378 0)
(0.999067 0.00689248 0)
(0.999305 0.00709285 0)
(0.999508 0.00729417 0)
(0.999616 0.00748225 0)
(0.999671 0.00763589 0)
(0.999641 0.00776825 0)
(0.999519 0.00787798 0)
(0.999329 0.00799838 0)
(0.999019 0.00807649 0)
(0.998713 0.00802586 0)
(0.998264 0.00779192 0)
(0.99768 0.00734662 0)
(0.996898 0.00676179 0)
(0.995901 0.00601632 0)
(0.994789 0.0051847 0)
(0.993473 0.00438925 0)
(0.99203 0.00368471 0)
(0.990438 0.00319737 0)
(0.988595 0.00287094 0)
(0.986853 0.00267117 0)
(0.984897 0.00259319 0)
(0.983041 0.00249556 0)
(0.98107 0.00243489 0)
(0.979011 0.00240469 0)
(0.976954 0.0023775 0)
(0.974791 0.00239598 0)
(0.972572 0.00236036 0)
(0.970286 0.00231509 0)
(0.967824 0.00233264 0)
(0.965446 0.00230055 0)
(0.962834 0.00221084 0)
(0.960227 0.00216946 0)
(0.957419 0.00215683 0)
(0.954516 0.00211251 0)
(0.95155 0.00207264 0)
(0.948366 0.00202514 0)
(0.945041 0.00193266 0)
(0.941771 0.00185871 0)
(0.938265 0.00181258 0)
(0.934791 0.00176364 0)
(0.931122 0.00169677 0)
(0.92761 0.00157084 0)
(0.923974 0.00147508 0)
(0.920173 0.00147954 0)
(0.9164 0.00143098 0)
(0.912857 0.00128448 0)
(0.908986 0.00118343 0)
(0.905312 0.00115024 0)
(0.901629 0.00109846 0)
(0.897994 0.00101179 0)
(0.894344 0.000921894 0)
(0.890863 0.000856364 0)
(0.887368 0.000792801 0)
(0.88416 0.00071852 0)
(0.880872 0.000660042 0)
(0.877716 0.000612126 0)
(0.874593 0.000546634 0)
(0.871744 0.000485158 0)
(0.868847 0.000445271 0)
(0.86638 0.000398489 0)
(0.863834 0.000347785 0)
(0.861573 0.000312577 0)
(0.859178 0.000280854 0)
(0.857194 0.000240814 0)
(0.855093 0.00020507 0)
(0.853402 0.000181991 0)
(0.851644 0.000158754 0)
(0.850277 0.0001351 0)
(0.848786 0.000114506 0)
(0.847671 9.74449e-05 0)
(0.846399 8.13112e-05 0)
(0.845538 6.53331e-05 0)
(0.844473 5.22992e-05 0)
(0.843867 4.05834e-05 0)
(0.843019 3.08815e-05 0)
(0.842638 2.21966e-05 0)
(0.841991 1.53411e-05 0)
(0.841798 9.23473e-06 0)
(0.841321 5.3244e-06 0)
(0.841286 1.19855e-06 0)
(0.840938 1.33713e-07 0)
(0.841018 -2.63504e-06 0)
(0.840779 -1.24714e-06 0)
(0.840921 -3.46898e-06 0)
(0.840781 8.47235e-07 0)
(0.840923 -2.61316e-06 0)
(0.840876 1.40554e-05 0)
(0.997825 0.00343149 0)
(0.997314 0.00430907 0)
(0.996896 0.00501504 0)
(0.996687 0.00548074 0)
(0.996661 0.00571834 0)
(0.996825 0.0057899 0)
(0.997102 0.0058099 0)