/*--------------------------------*- C++ -*----------------------------------*\
  =========                 |
  \\      /  F ield         | OpenFOAM: The Open Source CFD Toolbox
   \\    /   O peration     | Website:  https://openfoam.org
    \\  /    A nd           | Version:  10
     \\/     M anipulation  |
\*---------------------------------------------------------------------------*/
FoamFile
{
    format      ascii;
    class       surfaceScalarField;
    location    "0.1";
    object      phi;
}
// * * * * * * * * * * * * * * * * * * * * * * * * * * * * * * * * * * * * * //

dimensions      [0 3 -1 0 0 0 0];

internalField   nonuniform List<scalar> 
9440
(
3.90903e-06
-3.17626e-07
3.8654e-06
3.83411e-07
3.88018e-06
-3.4821e-08
3.88915e-06
-2.57431e-07
3.87039e-06
2.28535e-07
3.86701e-06
7.07949e-08
3.87853e-06
-1.06452e-07
3.87887e-06
-1.34472e-07
3.87436e-06
6.45248e-08
3.86839e-06
8.29456e-08
3.86808e-06
5.41982e-08
3.86926e-06
-5.43537e-08
3.87225e-06
-5.73124e-08
3.87137e-06
-5.80522e-08
3.86994e-06
1.13436e-08
3.86755e-06
1.65909e-08
3.86379e-06
5.37569e-08
3.85727e-06
3.46609e-08
3.84633e-06
3.637e-08
2.50558e-08
3.82946e-06
4.19425e-06
-3.26012e-07
4.19185e-06
3.85808e-07
4.18744e-06
-3.0415e-08
4.19118e-06
-2.61167e-07
4.18201e-06
2.37708e-07
4.18703e-06
6.57666e-08
4.18494e-06
-1.0436e-07
4.18213e-06
-1.31662e-07
4.18054e-06
6.61215e-08
4.18267e-06
8.0811e-08
4.18371e-06
5.3162e-08
4.18e-06
-5.06473e-08
4.17997e-06
-5.72868e-08
4.1736e-06
-5.16757e-08
4.176e-06
8.93797e-09
4.17065e-06
2.19407e-08
4.17319e-06
5.12208e-08
4.16501e-06
4.28363e-08
4.16026e-06
4.11219e-08
3.2265e-08
4.15305e-06
4.5117e-06
-3.17648e-07
4.53061e-06
3.66895e-07
4.51884e-06
-1.86414e-08
4.5163e-06
-2.58626e-07
4.51943e-06
2.34575e-07
4.52619e-06
5.90089e-08
4.51865e-06
-9.68185e-08
4.51027e-06
-1.23282e-07
4.51426e-06
6.21256e-08
4.51838e-06
7.66908e-08
4.52368e-06
4.78664e-08
4.51512e-06
-4.20915e-08
4.51425e-06
-5.64167e-08
4.50354e-06
-4.09617e-08
4.50853e-06
3.95016e-09
4.50179e-06
2.86781e-08
4.50743e-06
4.55822e-08
4.50125e-06
4.90166e-08
4.50003e-06
4.23442e-08
3.91278e-08
4.49316e-06
4.86718e-06
-3.03879e-07
4.89133e-06
3.42748e-07
4.87873e-06
-6.04951e-09
4.87354e-06
-2.53429e-07
4.88097e-06
2.27145e-07
4.88765e-06
5.2322e-08
4.87981e-06
-8.89782e-08
4.8686e-06
-1.12067e-07
4.87513e-06
5.55941e-08
4.87863e-06
7.31937e-08
4.88591e-06
4.05832e-08
4.87578e-06
-3.19576e-08
4.87408e-06
-5.47192e-08
4.86429e-06
-3.11769e-08
4.86592e-06
2.31979e-09
4.8635e-06
3.1104e-08
4.86411e-06
4.49688e-08
4.86342e-06
4.97061e-08
4.86023e-06
4.55365e-08
4.28436e-08
4.85651e-06
5.25527e-06
-2.88508e-07
5.28101e-06
3.17009e-07
5.26815e-06
6.81257e-09
5.26236e-06
-2.47637e-07
5.27068e-06
2.18823e-07
5.27683e-06
4.61737e-08
5.27006e-06
-8.22049e-08
5.25713e-06
-9.91393e-08
5.2651e-06
4.76222e-08
5.26725e-06
7.10458e-08
5.27549e-06
3.23376e-08
5.26523e-06
-2.16952e-08
5.26235e-06
-5.18365e-08
5.25481e-06
-2.36403e-08
5.25268e-06
4.44801e-09
5.25331e-06
3.04795e-08
5.25187e-06
4.64072e-08
5.25205e-06
4.95274e-08
5.24979e-06
4.77943e-08
4.55495e-08
5.24709e-06
5.67523e-06
-2.72282e-07
5.70199e-06
2.90256e-07
5.68885e-06
1.99531e-08
5.68282e-06
-2.41606e-07
5.69172e-06
2.09915e-07
5.6968e-06
4.1102e-08
5.69142e-06
-7.68305e-08
5.67718e-06
-8.49021e-08
5.68612e-06
3.86842e-08
5.6876e-06
6.95654e-08
5.69508e-06
2.4861e-08
5.68663e-06
-1.32436e-08
5.68078e-06
-4.59914e-08
5.67678e-06
-1.96409e-08
5.67155e-06
9.67741e-09
5.67298e-06
2.90479e-08
5.67226e-06
4.71293e-08
5.67146e-06
5.03323e-08
5.67055e-06
4.86976e-08
4.78701e-08
5.66823e-06
6.12892e-06
-2.55335e-07
6.15645e-06
2.62727e-07
6.1433e-06
3.31047e-08
6.1368e-06
-2.35109e-07
6.14657e-06
2.00153e-07
6.15007e-06
3.7597e-08
6.14653e-06
-7.32872e-08
6.13105e-06
-6.94283e-08
6.1404e-06
2.93395e-08
6.14202e-06
6.79468e-08
6.1475e-06
1.93771e-08
6.1421e-06
-7.83896e-09
6.133e-06
-3.68984e-08
6.13131e-06
-1.79461e-08
6.12564e-06
1.53485e-08
6.12515e-06
2.95399e-08
6.12638e-06
4.5893e-08
6.12516e-06
5.1552e-08
6.12445e-06
4.94095e-08
4.93138e-08
6.12301e-06
6.61897e-06
-2.37747e-07
6.64707e-06
2.3463e-07
6.63416e-06
4.6019e-08
6.62693e-06
-2.27879e-07
6.63788e-06
1.892e-07
6.63949e-06
3.59861e-08
6.63778e-06
-7.1574e-08
6.6215e-06
-5.31512e-08
6.63046e-06
2.03751e-08
6.63336e-06
6.50488e-08
6.63573e-06
1.70121e-08
6.63353e-06
-5.63842e-09
6.6224e-06
-2.57755e-08
6.62057e-06
-1.61118e-08
6.61706e-06
1.88616e-08
6.61405e-06
3.25438e-08
6.61611e-06
4.38333e-08
6.61585e-06
5.18177e-08
6.61468e-06
5.0577e-08
5.00379e-08
6.61395e-06
7.14831e-06
-2.19631e-07
7.17666e-06
2.06288e-07
7.16437e-06
5.83072e-08
7.15608e-06
-2.19594e-07
7.1685e-06
1.76782e-07
7.16798e-06
3.65071e-08
7.16798e-06
-7.1574e-08
7.15169e-06
-3.68648e-08
7.1591e-06
1.29742e-08
7.16422e-06
5.99236e-08
7.16305e-06
1.81818e-08
7.16313e-06
-5.7189e-09
7.15246e-06
-1.51085e-08
7.14812e-06
-1.17672e-08
7.14748e-06
1.95062e-08
7.14349e-06
3.65337e-08
7.1443e-06
4.30229e-08
7.14557e-06
5.05395e-08
7.14447e-06
5.16798e-08
5.07523e-08
7.14376e-06
7.72009e-06
-2.01117e-07
7.74834e-06
1.78041e-07
7.73708e-06
6.95597e-08
7.72736e-06
-2.09875e-07
7.74152e-06
1.62624e-07
7.73884e-06
3.91908e-08
7.74009e-06
-7.28214e-08
7.7248e-06
-2.15814e-08
7.72948e-06
8.29574e-09
7.7374e-06
5.20055e-08
7.73335e-06
2.22266e-08
7.73373e-06
-6.0969e-09
7.72561e-06
-6.98146e-09
7.71834e-06
-4.50308e-09
7.71887e-06
1.89792e-08
7.71633e-06
3.9074e-08
7.7153e-06
4.40475e-08
7.71702e-06
4.88217e-08
7.71685e-06
5.18489e-08
5.1637e-08
7.71597e-06
8.33771e-06
-1.82369e-07
8.36546e-06
1.5029e-07
8.35567e-06
7.93563e-08
8.34421e-06
-1.98417e-07
8.36022e-06
1.4661e-07
8.35555e-06
4.3862e-08
8.35736e-06
-7.4634e-08
8.34419e-06
-8.40516e-09
8.34537e-06
7.10981e-09
8.35566e-06
4.17157e-08
8.35043e-06
2.74624e-08
8.3489e-06
-4.56864e-09
8.34439e-06
-2.47431e-09
8.33566e-06
4.22687e-09
8.33497e-06
1.96742e-08
8.33478e-06
3.92593e-08
8.33302e-06
4.58105e-08
8.33385e-06
4.79875e-08
8.33463e-06
5.10719e-08
5.2146e-08
8.33412e-06
9.00486e-06
-1.63585e-07
9.03166e-06
1.23491e-07
9.02377e-06
8.72466e-08
9.01032e-06
-1.8497e-07
9.0281e-06
1.28837e-07
9.02195e-06
5.00073e-08
9.02337e-06
-7.60568e-08
9.01339e-06
1.57683e-09
9.01074e-06
9.76291e-09
9.0223e-06
3.01525e-08
9.01792e-06
3.18402e-08
9.01317e-06
1.8779e-10
9.01142e-06
-7.29885e-10
9.00368e-06
1.19669e-08
9.00043e-06
2.29237e-08
9.00161e-06
3.80882e-08
9.00088e-06
4.65387e-08
9.00054e-06
4.83249e-08
9.00141e-06
5.02068e-08
5.19927e-08
9.00156e-06
9.7255e-06
-1.44983e-07
9.75088e-06
9.81148e-08
9.74529e-06
9.28303e-08
9.72974e-06
-1.69413e-07
9.74896e-06
1.09614e-07
9.74208e-06
5.6884e-08
9.74209e-06
-7.60587e-08
9.73601e-06
7.65048e-09
9.73e-06
1.57788e-08
9.7411e-06
1.90437e-08
9.73932e-06
3.3626e-08
9.73133e-06
8.1812e-09
9.73041e-06
1.81302e-10
9.72555e-06
1.68326e-08
9.72033e-06
2.81389e-08
9.72091e-06
3.75162e-08
9.7218e-06
4.56422e-08
9.72128e-06
4.88429e-08
9.72148e-06
5.00114e-08
5.14272e-08
9.72204e-06
1.05039e-05
-1.26809e-07
1.05274e-05
7.46427e-08
1.05244e-05
9.57812e-08
1.05068e-05
-1.51822e-07
1.05269e-05
8.95216e-08
1.05202e-05
6.35619e-08
1.05179e-05
-7.37076e-08
1.05159e-05
9.63651e-09
1.05077e-05
2.39941e-08
1.05165e-05
1.02292e-08
1.0518e-05
3.21362e-08
1.05084e-05
1.77776e-08
1.0506e-05
2.57602e-09
1.05044e-05
1.84443e-08
1.04991e-05
3.34049e-08
1.04977e-05
3.89355e-08
1.04995e-05
4.386e-08
1.05e-05
4.83576e-08
1.04997e-05
5.03178e-08
5.11302e-08
1.05e-05
1.13447e-05
-1.09315e-07
1.13658e-05
5.35237e-08
1.13657e-05
9.59042e-08
1.13463e-05
-1.32488e-07
1.13665e-05
6.93688e-08
1.1361e-05
6.90265e-08
1.13556e-05
-6.83105e-08
1.13573e-05
7.97206e-09
1.13486e-05
3.27157e-08
1.13535e-05
5.3183e-09
1.1358e-05
2.7588e-08
1.13488e-05
2.6962e-08
1.13437e-05
7.6978e-09
1.13443e-05
1.79169e-08
1.13409e-05
3.6796e-08
1.13376e-05
4.21623e-08
1.13387e-05
4.27876e-08
1.13404e-05
4.66537e-08
1.13406e-05
5.01614e-08
5.12096e-08
1.13405e-05
1.22528e-05
-9.27571e-08
1.22712e-05
3.51436e-08
1.22739e-05
9.31773e-08
1.22533e-05
-1.11942e-07
1.22726e-05
5.01329e-08
1.22693e-05
7.23503e-08
1.22606e-05
-5.96492e-08
1.22649e-05
3.70004e-09
1.22574e-05
4.02276e-08
1.22577e-05
4.95699e-09
1.2264e-05
2.12581e-08
1.22572e-05
3.38331e-08
1.22495e-05
1.53833e-08
1.22501e-05
1.73083e-08
1.22495e-05
3.74356e-08
1.22459e-05
4.57506e-08
1.22452e-05
4.34491e-08
1.22473e-05
4.45272e-08
1.22485e-05
4.89554e-08
5.10588e-08
1.22487e-05
1.32335e-05
-7.73696e-08
1.32489e-05
1.97855e-08
1.32543e-05
8.77817e-08
1.32333e-05
-9.09176e-08
1.32506e-05
3.28213e-08
1.325e-05
7.28842e-08
1.32385e-05
-4.81195e-08
1.32439e-05
-1.64066e-09
1.3239e-05
4.51063e-08
1.32352e-05
8.71763e-09
1.32414e-05
1.50853e-08
1.3238e-05
3.7217e-08
1.32291e-05
2.43339e-08
1.3228e-05
1.84108e-08
1.32295e-05
3.58613e-08
1.32273e-05
4.79726e-08
1.32251e-05
4.56539e-08
1.32264e-05
4.31908e-08
1.32285e-05
4.69294e-08
5.00143e-08
1.32295e-05
1.42927e-05
-6.33553e-08
1.43049e-05
7.59415e-09
1.43126e-05
8.01162e-08
1.42919e-05
-7.02874e-08
1.43064e-05
1.83367e-08
1.43089e-05
7.03847e-08
1.42955e-05
-3.46693e-08
1.43002e-05
-6.37791e-09
1.42987e-05
4.65977e-08
1.42922e-05
1.52742e-08
1.42964e-05
1.0903e-08
1.42964e-05
3.71752e-08
1.4288e-05
3.2686e-08
1.42846e-05
2.18897e-08
1.42869e-05
3.35237e-08
1.42869e-05
4.79921e-08
1.42843e-05
4.82412e-08
1.42842e-05
4.32543e-08
1.42863e-05
4.48278e-08
4.81613e-08
1.42882e-05
1.54365e-05
-5.08668e-08
1.54455e-05
-1.44467e-09
1.54549e-05
7.0767e-08
1.54356e-05
-5.09552e-08
1.54466e-05
7.32653e-09
1.54519e-05
6.50952e-08
1.54378e-05
-2.05793e-08
1.54406e-05
-9.17161e-09
1.54423e-05
4.48424e-08
1.54348e-05
2.27871e-08
1.54358e-05
9.88338e-09
1.54383e-05
3.47463e-08
1.54321e-05
3.88462e-08
1.54268e-05
2.71531e-08
1.54283e-05
3.20455e-08
1.54302e-05
4.61428e-08
1.54286e-05
4.98125e-08
1.54274e-05
4.44512e-08
1.54288e-05
4.33995e-08
4.59813e-08
1.5431e-05
1.66716e-05
-3.99931e-08
1.66777e-05
-7.51605e-09
1.6688e-05
6.04563e-08
1.66707e-05
-3.37268e-08
1.6678e-05
5.66696e-11
1.66854e-05
5.77146e-08
1.6672e-05
-7.22618e-09
1.66721e-05
-9.21753e-09
1.66762e-05
4.06922e-08
1.66695e-05
2.95401e-08
1.66673e-05
1.20978e-08
1.66705e-05
3.15067e-08
1.66673e-05
4.20896e-08
1.66615e-05
3.29074e-08
1.66613e-05
3.22864e-08
1.6664e-05
4.34481e-08
1.66641e-05
4.97002e-08
1.66626e-05
4.59525e-08
1.66632e-05
4.282e-08
4.40282e-08
1.66651e-05
1.80052e-05
-3.07528e-08
1.80086e-05
-1.09547e-08
1.80191e-05
4.99503e-08
1.80046e-05
-1.91987e-08
1.80083e-05
-3.61747e-09
1.80167e-05
4.92523e-08
1.80053e-05
4.23517e-09
1.80026e-05
-6.52026e-09
1.80077e-05
3.55276e-08
1.80029e-05
3.43613e-08
1.79984e-05
1.65992e-08
1.80009e-05
2.89806e-08
1.80003e-05
4.27155e-08
1.79954e-05
3.77983e-08
1.79936e-05
3.40463e-08
1.7996e-05
4.10849e-08
1.79976e-05
4.81379e-08
1.79967e-05
4.67985e-08
1.79967e-05
4.28626e-08
4.25471e-08
1.79982e-05
1.9445e-05
-2.30929e-08
1.94463e-05
-1.22113e-08
1.94563e-05
3.99611e-08
1.94447e-05
-7.67225e-09
1.94453e-05
-4.21537e-09
1.94538e-05
4.0818e-08
1.9445e-05
1.30503e-08
1.94401e-05
-1.68218e-09
1.9445e-05
3.06843e-08
1.94424e-05
3.68801e-08
1.9437e-05
2.20258e-08
1.9438e-05
2.80181e-08
1.9439e-05
4.16547e-08
1.94358e-05
4.09961e-08
1.94334e-05
3.65146e-08
1.94347e-05
3.97331e-08
1.9437e-05
4.58318e-08
1.94373e-05
4.65231e-08
1.94371e-05
4.30649e-08
4.14513e-08
1.94382e-05
2.09996e-05
-1.6898e-08
2.09992e-05
-1.18007e-08
2.10081e-05
3.10728e-08
2.09995e-05
8.64929e-10
2.09979e-05
-2.52238e-09
2.10053e-05
3.33351e-08
2.09993e-05
1.90877e-08
2.09933e-05
4.27571e-09
2.09969e-05
2.71156e-08
2.09964e-05
3.74177e-08
2.09913e-05
2.71352e-08
2.09906e-05
2.86424e-08
2.09923e-05
3.9972e-08
2.09909e-05
4.23937e-08
2.09886e-05
3.88181e-08
2.0989e-05
3.93461e-08
2.09913e-05
4.35461e-08
2.09926e-05
4.52374e-08
2.09928e-05
4.28826e-08
4.06214e-08
2.09936e-05
2.2678e-05
-1.20036e-08
2.26765e-05
-1.02481e-08
2.26839e-05
2.36718e-08
2.2678e-05
6.73523e-09
2.26749e-05
5.41986e-10
2.26809e-05
2.73959e-08
2.26773e-05
2.26917e-08
2.26712e-05
1.03599e-08
2.26731e-05
2.51819e-08
2.26739e-05
3.66657e-08
2.26699e-05
3.11316e-08
2.26682e-05
3.03117e-08
2.26697e-05
3.84769e-08
2.26697e-05
4.23864e-08
2.26682e-05
4.03457e-08
2.26681e-05
3.94818e-08
2.26699e-05
4.17069e-08
2.26718e-05
4.33775e-08
2.26726e-05
4.2061e-08
3.97889e-08
2.26734e-05
2.44902e-05
-8.22014e-09
2.44879e-05
-8.02818e-09
2.44937e-05
1.79305e-08
2.449e-05
1.04238e-08
2.44864e-05
4.1682e-09
2.44905e-05
2.32338e-08
2.44888e-05
2.44526e-08
2.44833e-05
1.57822e-08
2.44838e-05
2.47453e-08
2.44851e-05
3.53702e-08
2.44825e-05
3.37382e-08
2.44805e-05
3.23104e-08
2.44814e-05
3.75145e-08
2.44823e-05
4.15323e-08
2.44817e-05
4.08942e-08
2.44816e-05
3.96601e-08
2.44829e-05
4.0324e-08
2.44849e-05
4.13855e-08
2.44863e-05
4.0669e-08
3.87096e-08
2.44874e-05
2.64467e-05
-5.34692e-09
2.64442e-05
-5.53691e-09
2.64483e-05
1.38272e-08
2.64462e-05
1.24908e-08
2.64427e-05
7.73686e-09
2.64452e-05
2.07424e-08
2.64446e-05
2.50175e-08
2.64403e-05
2.01093e-08
2.64397e-05
2.53451e-08
2.64409e-05
3.40942e-08
2.64396e-05
3.50714e-08
2.64379e-05
3.40392e-08
2.64384e-05
3.70194e-08
2.64396e-05
4.03326e-08
2.64399e-05
4.05819e-08
2.644e-05
3.95046e-08
2.64412e-05
3.92118e-08
2.6443e-05
3.9491e-08
2.64448e-05
3.8924e-08
3.73009e-08
2.64462e-05
2.85592e-05
-3.19397e-09
2.85567e-05
-3.06323e-09
2.85593e-05
1.11762e-08
2.85583e-05
1.34868e-08
2.85552e-05
1.08483e-08
2.85564e-05
1.9582e-08
2.85565e-05
2.49616e-08
2.85533e-05
2.32155e-08
2.85523e-05
2.64312e-08
2.85532e-05
3.31154e-08
2.85529e-05
3.54341e-08
2.85518e-05
3.51508e-08
2.85521e-05
3.67335e-08
2.85533e-05
3.90779e-08
2.85542e-05
3.9658e-08
2.85549e-05
3.88633e-08
2.8556e-05
3.81108e-08
2.85577e-05
3.77278e-08
2.85596e-05
3.70258e-08
3.56116e-08
2.85613e-05
3.08401e-05
-1.59054e-09
3.08378e-05
-8.0094e-10
3.08393e-05
9.6964e-09
3.08389e-05
1.38725e-08
3.08364e-05
1.33073e-08
3.08367e-05
1.93183e-08
3.0837e-05
2.4685e-08
3.0835e-05
2.519e-08
3.08339e-05
2.7535e-08
3.08346e-05
3.24447e-08
3.08349e-05
3.51537e-08
3.08345e-05
3.55333e-08
3.08348e-05
3.63966e-08
3.08361e-05
3.78397e-08
3.08374e-05
3.83529e-08
3.08385e-05
3.77548e-08
3.08397e-05
3.6833e-08
3.08415e-05
3.60147e-08
3.08434e-05
3.50832e-08
3.3738e-08
3.08453e-05
3.33029e-05
-4.01007e-10
3.3301e-05
1.15118e-09
3.33016e-05
9.06791e-09
3.33015e-05
1.39735e-08
3.32997e-05
1.50769e-08
3.32995e-05
1.95304e-08
3.32998e-05
2.43825e-08
3.32988e-05
2.6241e-08
3.3298e-05
2.83378e-08
3.32985e-05
3.19308e-08
3.32992e-05
3.44717e-08
3.32994e-05
3.52531e-08
3.33e-05
3.58048e-08
3.33013e-05
3.65615e-08
3.33028e-05
3.68135e-08
3.33043e-05
3.62725e-08
3.33059e-05
3.53028e-08
3.33076e-05
3.42477e-08
3.33096e-05
3.31168e-08
3.17579e-08
3.33116e-05
3.59622e-05
4.87902e-10
3.59606e-05
2.748e-09
3.59607e-05
8.98287e-09
3.59607e-05
1.39714e-08
3.59596e-05
1.62225e-08
3.59592e-05
1.9872e-08
3.59595e-05
2.40856e-08
3.59592e-05
2.65912e-08
3.59589e-05
2.86736e-08
3.59594e-05
3.13771e-08
3.59604e-05
3.35114e-08
3.59612e-05
3.44424e-08
3.59621e-05
3.48487e-08
3.59636e-05
3.51458e-08
3.59653e-05
3.51e-08
3.5967e-05
3.45108e-08
3.59688e-05
3.35214e-08
3.59707e-05
3.23569e-08
3.59727e-05
3.11014e-08
2.97102e-08
3.59748e-05
3.88338e-05
1.14652e-09
3.88326e-05
3.99277e-09
3.88324e-05
9.17844e-09
3.88324e-05
1.39317e-08
3.88318e-05
1.68433e-08
3.88315e-05
2.00985e-08
3.88319e-05
2.37286e-08
3.88321e-05
2.64116e-08
3.88323e-05
2.84915e-08
3.8833e-05
3.06127e-08
3.88342e-05
3.2314e-08
3.88355e-05
3.32059e-08
3.88368e-05
3.3506e-08
3.88384e-05
3.35129e-08
3.88403e-05
3.32161e-08
3.88423e-05
3.25329e-08
3.88443e-05
3.1521e-08
3.88463e-05
3.03161e-08
3.88484e-05
2.9007e-08
2.76033e-08
3.88505e-05
4.19346e-05
1.62141e-09
4.19336e-05
4.90694e-09
4.19334e-05
9.4443e-09
4.19335e-05
1.38401e-08
4.19333e-05
1.70269e-08
4.19333e-05
2.00598e-08
4.19338e-05
2.32098e-08
4.19345e-05
2.58012e-08
4.19351e-05
2.78035e-08
4.19362e-05
2.95266e-08
4.19377e-05
3.08668e-08
4.19393e-05
3.16081e-08
4.1941e-05
3.17974e-08
4.19429e-05
3.16196e-08
4.19449e-05
3.11431e-08
4.19471e-05
3.03682e-08
4.19493e-05
2.93346e-08
4.19515e-05
2.81263e-08
4.19537e-05
2.68162e-08
2.54327e-08
4.19558e-05
4.52828e-05
1.94394e-09
4.52822e-05
5.51245e-09
4.5282e-05
9.62634e-09
4.52823e-05
1.36356e-08
4.52825e-05
1.68284e-08
4.52828e-05
1.96735e-08
4.52836e-05
2.24322e-08
4.52846e-05
2.47989e-08
4.52858e-05
2.66396e-08
4.52872e-05
2.80742e-08
4.5289e-05
2.91261e-08
4.52909e-05
2.96817e-08
4.52929e-05
2.97534e-08
4.52951e-05
2.94532e-08
4.52974e-05
2.88631e-08
4.52997e-05
2.80257e-08
4.53021e-05
2.6984e-08
4.53044e-05
2.57979e-08
4.53067e-05
2.45238e-08
2.31922e-08
4.53089e-05
4.88984e-05
2.13173e-09
4.88981e-05
5.82628e-09
4.88981e-05
9.61729e-09
4.88985e-05
1.32413e-08
4.88991e-05
1.6268e-08
4.88998e-05
1.88976e-08
4.8901e-05
2.13196e-08
4.89023e-05
2.34087e-08
4.8904e-05
2.50314e-08
4.89058e-05
2.62397e-08
4.89079e-05
2.70557e-08
4.89101e-05
2.74363e-08
4.89125e-05
2.7398e-08
4.89149e-05
2.70165e-08
4.89174e-05
2.63665e-08
4.89199e-05
2.55051e-08
4.89224e-05
2.44798e-08
4.89249e-05
2.33399e-08
4.89273e-05
2.21302e-08
2.08777e-08
4.89296e-05
5.28026e-05
2.19387e-09
5.28026e-05
5.8585e-09
5.28029e-05
9.34494e-09
5.28035e-05
1.25842e-08
5.28045e-05
1.53398e-08
5.28057e-05
1.77097e-08
5.28072e-05
1.9819e-08
5.2809e-05
2.16176e-08
5.2811e-05
2.30063e-08
5.28132e-05
2.40138e-08
5.28156e-05
2.46364e-08
5.28182e-05
2.48709e-08
5.28208e-05
2.47443e-08
5.28235e-05
2.43158e-08
5.28263e-05
2.36502e-08
5.2829e-05
2.28044e-08
5.28316e-05
2.18258e-08
5.28342e-05
2.07574e-08
5.28367e-05
1.96366e-08
1.8486e-08
5.28391e-05
5.70186e-05
2.13418e-09
5.70188e-05
5.61283e-09
5.70194e-05
8.76145e-09
5.70204e-05
1.16034e-08
5.70217e-05
1.40247e-08
5.70233e-05
1.60955e-08
5.70252e-05
1.78978e-08
5.70274e-05
1.94126e-08
5.70299e-05
2.05755e-08
5.70325e-05
2.13941e-08
5.70353e-05
2.18584e-08
5.70382e-05
2.19815e-08
5.70411e-05
2.1796e-08
5.70441e-05
2.13534e-08
5.7047e-05
2.07096e-08
5.70499e-05
1.99168e-08
5.70527e-05
1.90185e-08
5.70554e-05
1.80514e-08
5.7058e-05
1.70451e-08
1.60169e-08
5.70605e-05
6.15711e-05
1.95333e-09
6.15716e-05
5.08987e-09
6.15726e-05
7.83624e-09
6.15739e-05
1.02525e-08
6.15756e-05
1.22997e-08
6.15777e-05
1.40434e-08
6.158e-05
1.55391e-08
6.15827e-05
1.67817e-08
6.15855e-05
1.77353e-08
6.15885e-05
1.83811e-08
6.15917e-05
1.87182e-08
6.15949e-05
1.87652e-08
6.15981e-05
1.85547e-08
6.16013e-05
1.81311e-08
6.16045e-05
1.75412e-08
6.16076e-05
1.68304e-08
6.16106e-05
1.60383e-08
6.16134e-05
1.51996e-08
6.16161e-05
1.43418e-08
1.34895e-08
6.16187e-05
6.64871e-05
1.6579e-09
6.64879e-05
4.28557e-09
6.64892e-05
6.55e-09
6.64909e-05
8.50457e-09
6.64931e-05
1.01518e-08
6.64956e-05
1.15516e-08
6.64984e-05
1.27429e-08
6.65014e-05
1.37233e-08
6.65047e-05
1.44685e-08
6.65081e-05
1.49619e-08
6.65116e-05
1.52031e-08
6.65152e-05
1.52095e-08
6.65187e-05
1.50102e-08
6.65222e-05
1.46426e-08
6.65256e-05
1.41447e-08
6.65289e-05
1.35523e-08
6.6532e-05
1.28959e-08
6.6535e-05
1.22009e-08
6.65379e-05
1.14879e-08
1.0769e-08
6.65406e-05
7.17955e-05
1.27662e-09
7.17966e-05
3.23756e-09
7.17982e-05
4.91611e-09
7.18004e-05
6.37184e-09
7.18029e-05
7.60736e-09
7.18058e-05
8.6558e-09
7.1809e-05
9.53916e-09
7.18125e-05
1.02584e-08
7.18161e-05
1.08e-08
7.18199e-05
1.1153e-08
7.18238e-05
1.1317e-08
7.18277e-05
1.13063e-08
7.18316e-05
1.11443e-08
7.18354e-05
1.08599e-08
7.1839e-05
1.04821e-08
7.18426e-05
1.00378e-08
7.18459e-05
9.54942e-09
7.18491e-05
9.0357e-09
7.1852e-05
8.51112e-09
7.99e-09
7.18548e-05
7.75279e-05
7.75293e-05
7.75314e-05
7.75339e-05
7.7537e-05
7.75404e-05
7.75441e-05
7.75481e-05
7.75522e-05
7.75565e-05
7.75608e-05
7.75651e-05
7.75693e-05
7.75734e-05
7.75773e-05
7.75811e-05
7.75847e-05
7.7588e-05
7.75912e-05
7.75942e-05
3.76837e-06
6.10859e-08
3.67773e-06
9.06387e-08
3.58241e-06
9.53194e-08
3.48899e-06
9.34236e-08
3.39359e-06
9.53987e-08
3.29424e-06
9.93547e-08
3.1906e-06
1.03641e-07
3.08357e-06
1.0703e-07
2.97935e-06
1.04221e-07
2.87745e-06
1.01895e-07
2.77037e-06
1.07079e-07
2.65913e-06
1.11237e-07
2.54775e-06
1.11389e-07
2.43488e-06
1.12864e-07
2.32066e-06
1.1422e-07
2.2069e-06
1.13763e-07
2.09266e-06
1.14238e-07
1.97813e-06
1.14531e-07
1.86675e-06
1.11376e-07
1.76039e-06
1.06365e-07
1.66061e-06
9.97796e-08
1.57606e-06
8.4553e-08
1.51939e-06
5.66669e-08
1.4946e-06
2.47884e-08
1.49282e-06
1.77874e-09
1.50013e-06
-7.30307e-09
1.50764e-06
-7.51752e-09
1.5129e-06
-5.25246e-09
1.51657e-06
-3.67525e-09
1.51948e-06
-2.90801e-09
1.52192e-06
-2.44436e-09
1.52397e-06
-2.04173e-09
1.52563e-06
-1.66169e-09
1.52692e-06
-1.2933e-09
1.52786e-06
-9.44231e-10
1.52851e-06
-6.42893e-10
1.52892e-06
-4.12996e-10
1.52918e-06
-2.56518e-10
1.52934e-06
-1.59232e-10
1.52944e-06
-1.02708e-10
1.52951e-06
-7.14017e-11
1.52956e-06
-5.4221e-11
1.52961e-06
-4.37673e-11
1.52964e-06
-3.66943e-11
1.52968e-06
-3.126e-11
1.5297e-06
-2.67266e-11
1.52973e-06
-2.28597e-11
1.52975e-06
-1.95131e-11
1.52976e-06
-1.66124e-11
1.52978e-06
-1.41308e-11
1.52979e-06
-1.20187e-11
1.5298e-06
-1.02185e-11
1.52981e-06
-8.65838e-12
1.52981e-06
-7.31471e-12
1.52982e-06
-6.1817e-12
1.52983e-06
-5.23513e-12
1.52983e-06
-4.43095e-12
1.52983e-06
-3.73207e-12
1.52984e-06
-3.12581e-12
1.52984e-06
-2.6092e-12
1.52984e-06
-2.18269e-12
1.52984e-06
-1.81929e-12
1.52985e-06
-1.50368e-12
1.52985e-06
-1.22676e-12
1.52985e-06
-9.99985e-13
1.52985e-06
-8.26893e-13
1.52985e-06
-6.79756e-13
1.52985e-06
-5.59151e-13
1.52985e-06
-4.41114e-13
1.52985e-06
-3.43173e-13
1.52985e-06
-2.66027e-13
1.52985e-06
-2.04509e-13
1.52985e-06
-1.64682e-13
1.52985e-06
-1.16476e-13
1.52985e-06
-9.07871e-14
1.52985e-06
-4.20313e-14
1.52985e-06
-5.3333e-14
1.52985e-06
3.56594e-14
1.52985e-06
-9.42569e-14
1.52985e-06
2.04152e-13
1.52985e-06
-3.47543e-13
1.52985e-06
7.5745e-13
1.52985e-06
-1.28001e-12
1.52985e-06
2.49269e-12
1.52985e-06
-4.13149e-12
1.52985e-06
7.24704e-12
1.52986e-06
-1.13026e-11
1.52984e-06
1.78249e-11
1.52986e-06
-2.48605e-11
1.52983e-06
3.41294e-11
1.52987e-06
-3.86294e-11
1.52983e-06
4.18317e-11
1.52985e-06
-2.25009e-11
1.52985e-06
4.46285e-12
1.52977e-06
7.84017e-11
1.52986e-06
-8.98443e-11
1.52958e-06
2.76068e-10
1.52966e-06
-8.07931e-11
1.52936e-06
3.04512e-10
8.72831e-10
4.16194e-06
5.21966e-08
4.16845e-06
8.41361e-08
4.16481e-06
9.89499e-08
4.15758e-06
1.00662e-07
4.14882e-06
1.0415e-07
4.13743e-06
1.10753e-07
4.12312e-06
1.17947e-07
4.10476e-06
1.25388e-07
4.08399e-06
1.24994e-07
4.06267e-06
1.23219e-07
4.03772e-06
1.32022e-07
4.00839e-06
1.40565e-07
3.9766e-06
1.43185e-07
3.94103e-06
1.4843e-07
3.90143e-06
1.53822e-07
3.85971e-06
1.5548e-07
3.81497e-06
1.5898e-07
3.76628e-06
1.63222e-07
3.71612e-06
1.61531e-07
3.66578e-06
1.5671e-07
3.61457e-06
1.50986e-07
3.56598e-06
1.3315e-07
3.52751e-06
9.51327e-08
3.50333e-06
4.89631e-08
3.4909e-06
1.42108e-08
3.48491e-06
-1.30973e-09
3.48134e-06
-3.94989e-09
3.47909e-06
-3.00035e-09
3.47863e-06
-3.21913e-09
3.48074e-06
-5.01304e-09
3.48564e-06
-7.35054e-09
3.49281e-06
-9.20572e-09
3.50111e-06
-9.96679e-09
3.5093e-06
-9.48302e-09
3.51639e-06
-8.03448e-09
3.52188e-06
-6.13176e-09
3.52573e-06
-4.25902e-09
3.52819e-06
-2.71703e-09
3.52964e-06
-1.60584e-09
3.53042e-06
-8.88026e-10
3.53082e-06
-4.6613e-10
3.531e-06
-2.37537e-10
3.53108e-06
-1.20615e-10
3.5311e-06
-6.32719e-11
3.53111e-06
-3.51969e-11
3.5311e-06
-2.07149e-11
3.53109e-06
-1.25313e-11
3.53108e-06
-7.33912e-12
3.53107e-06
-3.72082e-12
3.53105e-06
-1.11737e-12
3.53104e-06
7.72965e-13
3.53103e-06
2.13498e-12
3.53102e-06
3.13237e-12
3.531e-06
3.82703e-12
3.53099e-06
4.25575e-12
3.53098e-06
4.46615e-12
3.53098e-06
4.52644e-12
3.53097e-06
4.49869e-12
3.53096e-06
4.4073e-12
3.53095e-06
4.25414e-12
3.53095e-06
4.04023e-12
3.53094e-06
3.80562e-12
3.53094e-06
3.56e-12
3.53093e-06
3.32151e-12
3.53093e-06
3.06924e-12
3.53092e-06
2.7929e-12
3.53092e-06
2.5317e-12
3.53092e-06
2.2796e-12
3.53091e-06
2.07091e-12
3.53091e-06
1.86783e-12
3.53091e-06
1.67636e-12
3.53091e-06
1.49139e-12
3.53091e-06
1.3073e-12
3.53091e-06
1.16657e-12
3.5309e-06
1.01891e-12
3.5309e-06
9.22779e-13
3.5309e-06
7.76761e-13
3.5309e-06
7.51343e-13
3.5309e-06
5.22735e-13
3.5309e-06
7.32907e-13
3.5309e-06
1.1889e-13
3.5309e-06
1.15308e-12
3.5309e-06
-9.09238e-13
3.5309e-06
2.80989e-12
3.5309e-06
-3.83028e-12
3.5309e-06
7.63425e-12
3.5309e-06
-1.12866e-11
3.5309e-06
1.90626e-11
3.5309e-06
-2.64359e-11
3.53089e-06
3.8991e-11
3.5309e-06
-4.48164e-11
3.53089e-06
5.35832e-11
3.53089e-06
-2.70603e-11
3.53089e-06
5.48302e-12
3.53084e-06
1.33929e-10
3.53091e-06
-1.58309e-10
3.5307e-06
4.81413e-10
3.53075e-06
-1.33232e-10
3.53059e-06
4.65813e-10
1.27276e-09
4.49584e-06
4.95218e-08
4.50403e-06
7.59427e-08
4.50842e-06
9.45646e-08
4.50894e-06
1.00136e-07
4.5086e-06
1.0449e-07
4.50902e-06
1.1034e-07
4.51043e-06
1.16533e-07
4.51118e-06
1.24634e-07
4.50997e-06
1.26209e-07
4.50832e-06
1.24871e-07
4.50677e-06
1.33569e-07
4.50449e-06
1.42843e-07
4.50141e-06
1.46266e-07
4.49718e-06
1.52657e-07
4.4916e-06
1.59405e-07
4.48511e-06
1.61973e-07
4.47769e-06
1.66397e-07
4.46912e-06
1.7179e-07
4.45974e-06
1.70917e-07
4.44977e-06
1.66673e-07
4.43882e-06
1.61944e-07
4.42715e-06
1.44819e-07
4.41613e-06
1.06149e-07
4.40704e-06
5.80579e-08
4.40021e-06
2.10407e-08
4.39544e-06
3.45329e-09
4.39225e-06
-7.55111e-10
4.39023e-06
-9.82759e-10
4.38928e-06
-2.27155e-09
4.38962e-06
-5.35345e-09
4.39142e-06
-9.15135e-09
4.39455e-06
-1.2328e-08
4.3985e-06
-1.3921e-08
4.40263e-06
-1.36153e-08
4.40636e-06
-1.17624e-08
4.40933e-06
-9.09987e-09
4.41144e-06
-6.36934e-09
4.41279e-06
-4.06329e-09
4.41355e-06
-2.37357e-09
4.41394e-06
-1.27114e-09
4.41409e-06
-6.21095e-10
4.41412e-06
-2.70947e-10
4.4141e-06
-9.55408e-11
4.41405e-06
-1.36895e-11
4.41399e-06
2.24452e-11
4.41393e-06
3.77298e-11
4.41388e-06
4.37007e-11
4.41382e-06
4.55424e-11
4.41378e-06
4.54418e-11
4.41373e-06
4.42567e-11
4.41369e-06
4.24286e-11
4.41365e-06
4.02118e-11
4.41362e-06
3.78165e-11
4.41358e-06
3.53173e-11
4.41356e-06
3.27589e-11
4.41353e-06
3.01922e-11
4.41351e-06
2.76825e-11
4.41349e-06
2.52898e-11
4.41347e-06
2.30314e-11
4.41345e-06
2.08972e-11
4.41344e-06
1.88724e-11
4.41342e-06
1.69959e-11
4.41341e-06
1.52584e-11
4.4134e-06
1.36723e-11
4.41339e-06
1.22063e-11
4.41338e-06
1.08344e-11
4.41338e-06
9.59326e-12
4.41337e-06
8.46149e-12
4.41336e-06
7.47574e-12
4.41336e-06
6.5729e-12
4.41336e-06
5.76479e-12
4.41335e-06
5.03122e-12
4.41335e-06
4.35982e-12
4.41335e-06
3.79894e-12
4.41334e-06
3.27672e-12
4.41334e-06
2.85792e-12
4.41334e-06
2.43198e-12
4.41334e-06
2.14963e-12
4.41334e-06
1.73986e-12
4.41334e-06
1.71101e-12
4.41334e-06
1.06621e-12
4.41334e-06
1.73726e-12
4.41334e-06
2.3186e-14
4.41333e-06
2.81573e-12
4.41333e-06
-2.35194e-12
4.41333e-06
6.37703e-12
4.41333e-06
-8.01265e-12
4.41334e-06
1.50257e-11
4.41333e-06
-1.92149e-11
4.41334e-06
3.01958e-11
4.41332e-06
-3.13869e-11
4.41334e-06
3.9173e-11
4.41332e-06
-4.53137e-12
4.41334e-06
-1.59721e-11
4.41329e-06
1.7951e-10
4.41332e-06
-1.87841e-10
4.41324e-06
5.64393e-10
4.41321e-06
-1.05589e-10
4.41317e-06
5.03657e-10
1.2864e-09
4.85679e-06
4.92431e-08
4.8624e-06
7.03338e-08
4.86814e-06
8.88227e-08
4.87034e-06
9.7937e-08
4.87045e-06
1.04386e-07
4.87096e-06
1.0983e-07
4.87315e-06
1.14341e-07
4.87614e-06
1.21636e-07
4.87793e-06
1.24422e-07
4.87902e-06
1.23787e-07
4.88058e-06
1.3201e-07
4.88234e-06
1.41076e-07
4.88403e-06
1.44583e-07
4.88572e-06
1.50966e-07
4.8874e-06
1.57725e-07
4.88907e-06
1.60297e-07
4.89086e-06
1.64613e-07
4.8929e-06
1.69749e-07
4.89516e-06
1.68651e-07
4.8974e-06
1.6444e-07
4.89936e-06
1.59983e-07
4.90043e-06
1.43743e-07
4.89967e-06
1.06913e-07
4.8967e-06
6.10305e-08
4.89237e-06
2.53669e-08
4.88826e-06
7.56069e-09
4.88521e-06
2.30278e-09
4.88316e-06
1.06555e-09
4.88185e-06
-9.60177e-10
4.88097e-06
-4.47993e-09
4.88042e-06
-8.59988e-09
4.88014e-06
-1.20456e-08
4.88008e-06
-1.38655e-08
4.8802e-06
-1.37353e-08
4.88043e-06
-1.19928e-08
4.8807e-06
-9.36962e-09
4.88095e-06
-6.61644e-09
4.88114e-06
-4.24793e-09
4.88124e-06
-2.48133e-09
4.88128e-06
-1.30741e-09
4.88126e-06
-6.02041e-10
4.8812e-06
-2.15209e-10
4.88113e-06
-1.85418e-11
4.88104e-06
7.28869e-11
4.88095e-06
1.11188e-10
4.88087e-06
1.24175e-10
4.88078e-06
1.2552e-10
4.88071e-06
1.21676e-10
4.88064e-06
1.15556e-10
4.88057e-06
1.08388e-10
4.88052e-06
1.00813e-10
4.88046e-06
9.31687e-11
4.88041e-06
8.57152e-11
4.88037e-06
7.85307e-11
4.88033e-06
7.16517e-11
4.8803e-06
6.5119e-11
4.88027e-06
5.89804e-11
4.88024e-06
5.32771e-11
4.88021e-06
4.80062e-11
4.88019e-06
4.31383e-11
4.88017e-06
3.8631e-11
4.88015e-06
3.45143e-11
4.88014e-06
3.07541e-11
4.88012e-06
2.73462e-11
4.88011e-06
2.42474e-11
4.8801e-06
2.141e-11
4.88009e-06
1.88615e-11
4.88008e-06
1.65592e-11
4.88008e-06
1.45398e-11
4.88007e-06
1.27102e-11
4.88007e-06
1.10867e-11
4.88006e-06
9.63251e-12
4.88006e-06
8.32208e-12
4.88005e-06
7.20957e-12
4.88005e-06
6.19639e-12
4.88005e-06
5.35578e-12
4.88005e-06
4.56214e-12
4.88004e-06
3.9512e-12
4.88004e-06
3.29196e-12
4.88004e-06
2.97942e-12
4.88004e-06
2.23766e-12
4.88004e-06
2.54298e-12
4.88004e-06
1.07678e-12
4.88004e-06
3.02518e-12
4.88004e-06
-8.61575e-13
4.88004e-06
5.32677e-12
4.88004e-06
-4.73267e-12
4.88004e-06
1.08836e-11
4.88003e-06
-1.11692e-11
4.88004e-06
1.93041e-11
4.88002e-06
-1.35656e-11
4.88005e-06
1.7079e-11
4.88001e-06
2.79494e-11
4.88005e-06
-4.7692e-11
4.88e-06
2.23796e-10
4.88002e-06
-2.03556e-10
4.87998e-06
5.97815e-10
4.87993e-06
-4.92165e-11
4.87993e-06
4.98152e-10
1.19264e-09
5.24701e-06
4.93179e-08
5.25068e-06
6.66645e-08
5.25586e-06
8.36443e-08
5.25932e-06
9.44758e-08
5.26044e-06
1.03265e-07
5.26083e-06
1.09444e-07
5.26253e-06
1.12641e-07
5.26554e-06
1.18626e-07
5.26782e-06
1.2214e-07
5.26944e-06
1.22166e-07
5.27141e-06
1.30043e-07
5.27364e-06
1.38839e-07
5.27591e-06
1.4232e-07
5.27828e-06
1.4859e-07
5.28095e-06
1.55052e-07
5.284e-06
1.57257e-07
5.2873e-06
1.61312e-07
5.29105e-06
1.65995e-07
5.29533e-06
1.64372e-07
5.29984e-06
1.59926e-07
5.30429e-06
1.55534e-07
5.30795e-06
1.4008e-07
5.30942e-06
1.05449e-07
5.30789e-06
6.25631e-08
5.30427e-06
2.89844e-08
5.30035e-06
1.14759e-08
5.29726e-06
5.39298e-09
5.29523e-06
3.10358e-09
5.2938e-06
4.63058e-10
5.29253e-06
-3.20576e-09
5.29124e-06
-7.30715e-09
5.28992e-06
-1.07279e-08
5.28867e-06
-1.26217e-08
5.28762e-06
-1.2682e-08
5.28683e-06
-1.11981e-08