/*--------------------------------*- C++ -*----------------------------------*\
  =========                 |
  \\      /  F ield         | OpenFOAM: The Open Source CFD Toolbox
   \\    /   O peration     | Website:  https://openfoam.org
    \\  /    A nd           | Version:  10
     \\/     M anipulation  |
\*---------------------------------------------------------------------------*/
FoamFile
{
    format      ascii;
    class       volVectorField;
    location    "0.1";
    object      U;
}
// * * * * * * * * * * * * * * * * * * * * * * * * * * * * * * * * * * * * * //

dimensions      [0 1 -1 0 0 0 0];

internalField   nonuniform List<vector> 
4800
(
(0.983829 -0.00286728 0)
(1.03389 0.00372001 0)
(0.959069 -0.000240884 0)
(1.04262 -0.00321966 0)
(0.965465 0.00295829 0)
(1.02851 0.00103592 0)
(0.96979 -0.00158682 0)
(1.02883 -0.00243844 0)
(0.973487 0.00118659 0)
(1.02428 0.00165963 0)
(0.97351 0.00126351 0)
(1.01963 -0.00135555 0)
(0.977824 -0.00150968 0)
(1.01883 -0.00177961 0)
(0.979327 0.00032429 0)
(1.01449 0.000509638 0)
(0.980775 0.00195385 0)
(1.01097 0.00120973 0)
(0.980651 0.00121382 0)
(1.00751 0.000513835 0)
(0.993078 -0.00342069 0)
(1.01282 0.0044912 0)
(0.987103 -0.000509995 0)
(1.01523 -0.00344795 0)
(0.98743 0.0034363 0)
(1.00902 0.00110444 0)
(0.993501 -0.00188844 0)
(1.00507 -0.00249946 0)
(0.993096 0.00140406 0)
(1.00412 0.00183382 0)
(0.995445 0.00132549 0)
(1.00169 -0.00148821 0)
(0.996329 -0.00159597 0)
(1.00001 -0.00180461 0)
(0.99516 0.000498566 0)
(0.99756 0.000641333 0)
(0.996096 0.00219202 0)
(0.997332 0.0016129 0)
(0.995784 0.00184529 0)
(0.995688 0.00147882 0)
(0.998155 -0.00318245 0)
(1.00077 0.00406467 0)
(0.99986 -0.000260363 0)
(1.00229 -0.00334118 0)
(0.99524 0.00329655 0)
(1.00337 0.000948254 0)
(1.00078 -0.00164084 0)
(0.998119 -0.00227283 0)
(0.997134 0.0012209 0)
(1.00025 0.00168832 0)
(0.999918 0.00114745 0)
(0.999857 -0.00111249 0)
(0.998866 -0.00158486 0)
(0.997629 -0.00131873 0)
(0.996213 0.000111053 0)
(0.996224 0.00100767 0)
(0.996929 0.00172327 0)
(0.997513 0.00198662 0)
(0.99722 0.00191374 0)
(0.9966 0.002009 0)
(0.999442 -0.00315429 0)
(0.997721 0.00391444 0)
(1.00228 -0.000142377 0)
(0.99969 -0.00337005 0)
(0.996354 0.00331094 0)
(1.00255 0.000848308 0)
(1.00169 -0.0015453 0)
(0.997244 -0.00221427 0)
(0.997458 0.00121939 0)
(0.999891 0.00161228 0)
(1.00027 0.00107169 0)
(0.999772 -0.000968198 0)
(0.999024 -0.00158832 0)
(0.997491 -0.00108568 0)
(0.99625 6.68874e-05 0)
(0.996209 0.0011064 0)
(0.996981 0.00176324 0)
(0.997625 0.00210424 0)
(0.997481 0.0020678 0)
(0.996922 0.00210882 0)
(0.999667 -0.00296458 0)
(0.997315 0.00360435 0)
(1.00238 -1.69077e-05 0)
(0.999496 -0.0032023 0)
(0.996503 0.00311937 0)
(1.00232 0.000747168 0)
(1.00167 -0.0014268 0)
(0.997284 -0.00188133 0)
(0.997581 0.00101638 0)
(0.999831 0.00153962 0)
(1.00016 0.000824717 0)
(0.999647 -0.000646515 0)
(0.999042 -0.00149671 0)
(0.997583 -0.000763689 0)
(0.996366 9.51763e-05 0)
(0.996329 0.00105816 0)
(0.997054 0.00180855 0)
(0.997643 0.00208902 0)
(0.997519 0.00211101 0)
(0.997073 0.00227043 0)
(0.999724 -0.00281699 0)
(0.997354 0.00330409 0)
(1.00219 0.000188556 0)
(0.999594 -0.00319677 0)
(0.996634 0.00302974 0)
(1.00213 0.000669232 0)
(1.00156 -0.00131255 0)
(0.997391 -0.00169599 0)
(0.99775 0.000837666 0)
(0.99982 0.00153217 0)
(1.00003 0.000666772 0)
(0.999491 -0.000399856 0)
(0.999025 -0.00140153 0)
(0.997707 -0.00065172 0)
(0.996519 0.000243063 0)
(0.996499 0.00101397 0)
(0.997172 0.00183563 0)
(0.997682 0.00215762 0)
(0.997552 0.00221758 0)
(0.997172 0.0023869 0)
(0.999765 -0.00265246 0)
(0.997443 0.00303101 0)
(1.00197 0.000304421 0)
(0.999721 -0.00308519 0)
(0.996776 0.00291336 0)
(1.00194 0.000579558 0)
(1.00146 -0.00125321 0)
(0.997515 -0.00139228 0)
(0.997926 0.000675593 0)
(0.999795 0.00149822 0)
(0.999904 0.000482535 0)
(0.999351 -0.000240368 0)
(0.999017 -0.00115343 0)
(0.997865 -0.000563536 0)
(0.99667 0.000470416 0)
(0.99665 0.00101991 0)
(0.997303 0.00176732 0)
(0.99773 0.00219837 0)
(0.997579 0.00228632 0)
(0.997252 0.00242803 0)
(0.999803 -0.00247244 0)
(0.997545 0.00270602 0)
(1.00175 0.000479701 0)
(0.99984 -0.00299579 0)
(0.996922 0.0027339 0)
(1.00174 0.000560565 0)
(1.00137 -0.00118932 0)
(0.997617 -0.00110741 0)
(0.998094 0.0004547 0)
(0.999783 0.00145093 0)
(0.999788 0.000409121 0)
(0.999236 -0.00014852 0)
(0.998981 -0.00084355 0)
(0.998012 -0.000547777 0)
(0.996835 0.000587618 0)
(0.996787 0.00113449 0)
(0.997453 0.00168838 0)
(0.997817 0.00219857 0)
(0.997619 0.00237072 0)
(0.997336 0.0025163 0)
(0.99984 -0.00229676 0)
(0.997658 0.00240444 0)
(1.00153 0.000628459 0)
(0.999956 -0.00291333 0)
(0.997081 0.00259808 0)
(1.00154 0.000550307 0)
(1.00129 -0.00120593 0)
(0.997722 -0.000808065 0)
(0.998259 0.000314753 0)
(0.999775 0.00137219 0)
(0.999657 0.000393281 0)
(0.999139 -0.000162766 0)
(0.998952 -0.000536885 0)
(0.998161 -0.000443567 0)
(0.997034 0.000617103 0)
(0.996911 0.00129865 0)
(0.997577 0.00167092 0)
(0.997919 0.00211653 0)
(0.997677 0.00240031 0)
(0.997408 0.00258426 0)
(0.999875 -0.00211041 0)
(0.99778 0.00209213 0)
(1.00131 0.000767864 0)
(1.00007 -0.00278475 0)
(0.997243 0.00240357 0)
(1.00133 0.000564184 0)
(1.00122 -0.00120188 0)
(0.997819 -0.000511216 0)
(0.998403 0.000177965 0)
(0.999782 0.00121134 0)
(0.999532 0.000472272 0)
(0.999068 -0.000168248 0)
(0.99893 -0.000262374 0)
(0.998271 -0.000259816 0)
(0.997242 0.00057662 0)
(0.997055 0.00138327 0)
(0.997683 0.00173412 0)
(0.998037 0.00205369 0)
(0.997775 0.00238094 0)
(0.997485 0.00264111 0)
(0.999907 -0.0019227 0)
(0.997913 0.00178312 0)
(1.00109 0.000897012 0)
(1.00017 -0.00265161 0)
(0.997418 0.00218283 0)
(1.00111 0.000638917 0)
(1.00116 -0.00124273 0)
(0.997916 -0.000253942 0)
(0.998525 0.000127519 0)
(0.999812 0.00100824 0)
(0.999407 0.000597303 0)
(0.998998 -0.000171289 0)
(0.998934 -0.000111411 0)
(0.998366 1.23711e-05 0)
(0.997452 0.000592873 0)
(0.997228 0.00138869 0)
(0.997779 0.00181273 0)
(0.998131 0.0020564 0)
(0.997887 0.00231699 0)
(0.997588 0.00263023 0)
(0.999936 -0.00173376 0)
(0.998055 0.00148478 0)
(1.00087 0.0010012 0)
(1.00025 -0.00249065 0)
(0.997604 0.00194698 0)
(1.00089 0.000720433 0)
(1.00112 -0.00127772 0)
(0.998024 -3.42613e-05 0)
(0.998613 0.000152772 0)
(0.999857 0.000755024 0)
(0.999298 0.000717592 0)
(0.998923 -7.9454e-05 0)
(0.998974 -3.74247e-05 0)
(0.998454 0.000290541 0)
(0.997622 0.000688185 0)
(0.997415 0.0013256 0)
(0.997898 0.0018302 0)
(0.998216 0.00209555 0)
(0.997997 0.00230546 0)
(0.997713 0.00257848 0)
(0.999962 -0.00154497 0)
(0.998206 0.00119764 0)
(1.00067 0.00108238 0)
(1.00033 -0.00229937 0)
(0.997801 0.00167776 0)
(1.00066 0.000826703 0)
(1.00107 -0.0012917 0)
(0.998144 0.00011254 0)
(0.998666 0.000245982 0)
(0.999916 0.000502054 0)
(0.999223 0.000798992 0)
(0.998829 9.90869e-05 0)
(0.999029 -1.28049e-05 0)
(0.998565 0.000475611 0)
(0.997761 0.000874321 0)
(0.997595 0.0012999 0)
(0.998047 0.00177798 0)
(0.998312 0.00212357 0)
(0.998088 0.0023444 0)
(0.997834 0.00254656 0)
(0.999984 -0.00135971 0)
(0.998364 0.000930023 0)
(1.00047 0.00113285 0)
(1.00038 -0.00208234 0)
(0.99801 0.00139421 0)
(1.00044 0.000936468 0)
(1.00102 -0.00127362 0)
(0.998287 0.000177459 0)
(0.998686 0.000406093 0)
(0.999971 0.000282772 0)
(0.999196 0.000797508 0)
(0.998724 0.000344399 0)
(0.99908 2.12211e-05 0)
(0.998714 0.000543253 0)
(0.997885 0.00107215 0)
(0.997729 0.00135107 0)
(0.998209 0.00168197 0)
(0.998448 0.00208574 0)
(0.998187 0.00238525 0)
(0.997931 0.00257767 0)
(1 -0.00117994 0)
(0.998527 0.000685837 0)
(1.0003 0.00115028 0)
(1.00041 -0.00183877 0)
(0.998229 0.0011048 0)
(1.00022 0.0010315 0)
(1.00097 -0.00120583 0)
(0.998455 0.00016913 0)
(0.998682 0.000582576 0)
(1.00001 0.000137206 0)
(0.999228 0.000703561 0)
(0.998619 0.000607791 0)
(0.999093 0.000122851 0)
(0.998898 0.000521752 0)
(0.998037 0.00120711 0)
(0.997822 0.00148401 0)
(0.998347 0.00163218 0)
(0.998624 0.00198582 0)
(0.998325 0.00237856 0)
(0.998013 0.00263084 0)
(1.00002 -0.00100846 0)
(0.998694 0.000470229 0)
(1.00014 0.00113251 0)
(1.00042 -0.00157638 0)
(0.998455 0.000822258 0)
(1.00002 0.00110046 0)
(1.00089 -0.00108082 0)
(0.998647 0.000101538 0)
(0.998668 0.000751401 0)
(1.00001 8.73601e-05 0)
(0.999312 0.000550607 0)
(0.998549 0.000819359 0)
(0.999059 0.000323046 0)
(0.999088 0.000492625 0)
(0.998238 0.001244 0)
(0.997897 0.00163675 0)
(0.998431 0.00166288 0)
(0.998808 0.00187126 0)
(0.998523 0.00229722 0)
(0.998128 0.00264663 0)
(1.00003 -0.000847797 0)
(0.99886 0.000286873 0)
(1 0.00108105 0)
(1.00041 -0.00130303 0)
(0.998682 0.000561943 0)
(0.999847 0.00112992 0)
(1.00079 -0.000901221 0)
(0.998857 1.21883e-05 0)
(0.998662 0.000874737 0)
(0.999961 0.000135379 0)
(0.999432 0.000395145 0)
(0.998536 0.000942591 0)
(0.998986 0.000578578 0)
(0.999244 0.000503489 0)
(0.998491 0.00118582 0)
(0.997998 0.00173775 0)
(0.998458 0.00176677 0)
(0.998955 0.00180795 0)
(0.998762 0.00217221 0)
(0.998314 0.00258486 0)
(1.00003 -0.000700117 0)
(0.999022 0.000137856 0)
(0.999895 0.00100033 0)
(1.00037 -0.00102987 0)
(0.998903 0.000337556 0)
(0.999705 0.00111046 0)
(1.00066 -0.000682134 0)
(0.999071 -8.15563e-05 0)
(0.998679 0.000929462 0)
(0.999874 0.000260233 0)
(0.999562 0.000272587 0)
(0.998595 0.000962943 0)
(0.998897 0.000835512 0)
(0.999337 0.000592079 0)
(0.998771 0.00109516 0)
(0.998161 0.00174912 0)
(0.998463 0.00188826 0)
(0.999038 0.00182069 0)
(0.998997 0.00206017 0)
(0.998571 0.00245853 0)
(1.00003 -0.000567259 0)
(0.999176 2.37038e-05 0)
(0.999812 0.00089614 0)
(1.00032 -0.000768723 0)
(0.999112 0.000159435 0)
(0.9996 0.00104416 0)
(1.00052 -0.000445135 0)
(0.999276 -0.000154782 0)
(0.998734 0.000913656 0)
(0.999759 0.0004247 0)
(0.99967 0.000216025 0)
(0.998725 0.00090319 0)
(0.998831 0.00103785 0)
(0.999362 0.000752519 0)
(0.999034 0.00103275 0)
(0.998391 0.00167863 0)
(0.998491 0.00196645 0)
(0.999062 0.0018884 0)
(0.999183 0.00199821 0)
(0.998858 0.00232022 0)
(1.00003 -0.000450498 0)
(0.99932 -5.70125e-05 0)
(0.999756 0.000776647 0)
(1.00026 -0.000531238 0)
(0.9993 3.40656e-05 0)
(0.999537 0.000939001 0)
(1.00037 -0.000212368 0)
(0.999455 -0.000180327 0)
(0.998831 0.00084022 0)
(0.999638 0.000587258 0)
(0.999739 0.000242722 0)
(0.998904 0.000815067 0)
(0.998819 0.00115521 0)
(0.999337 0.000940729 0)
(0.999242 0.00102853 0)
(0.998666 0.0015693 0)
(0.998578 0.00197275 0)
(0.999059 0.00196537 0)
(0.999305 0.00198705 0)
(0.999119 0.00221759 0)
(1.00003 -0.000350083 0)
(0.999451 -0.000107268 0)
(0.999725 0.000650458 0)
(1.00018 -0.000326569 0)
(0.999462 -3.79596e-05 0)
(0.999513 0.000811248 0)
(1.00022 -7.60509e-06 0)
(0.999599 -0.0001523 0)
(0.998962 0.00073666 0)
(0.999534 0.000711756 0)
(0.999763 0.000338077 0)
(0.999101 0.000740617 0)
(0.998873 0.00118818 0)
(0.999295 0.0011086 0)
(0.999379 0.00108589 0)
(0.998946 0.00147277 0)
(0.998734 0.00191211 0)
(0.999068 0.00201268 0)
(0.999378 0.00200397 0)
(0.999325 0.00215763 0)
(1.00003 -0.000266055 0)
(0.999566 -0.000130932 0)
(0.999715 0.000526693 0)
(1.00011 -0.000159802 0)
(0.999594 -6.36826e-05 0)
(0.999522 0.000678372 0)
(1.00008 0.000158789 0)
(0.999702 -7.96979e-05 0)
(0.999115 0.00063285 0)
(0.999467 0.000783663 0)
(0.999752 0.000466878 0)
(0.999284 0.000702734 0)
(0.998984 0.00116189 0)
(0.999274 0.00122376 0)
(0.999457 0.00117793 0)
(0.999192 0.00141845 0)
(0.998943 0.00181486 0)
(0.999122 0.00201023 0)
(0.999426 0.00202107 0)
(0.999476 0.00212107 0)
(1.00002 -0.000197296 0)
(0.999664 -0.000133832 0)
(0.999724 0.00041382 0)
(1.00005 -3.27602e-05 0)
(0.999697 -5.25776e-05 0)
(0.999558 0.000554129 0)
(0.999967 0.000280894 0)
(0.999767 2.58047e-05 0)
(0.999272 0.000551129 0)
(0.999445 0.000805896 0)
(0.999722 0.000595666 0)
(0.999436 0.00070906 0)
(0.999134 0.00111417 0)
(0.999293 0.00127998 0)
(0.9995 0.00126682 0)
(0.999384 0.00140795 0)
(0.99917 0.00171965 0)
(0.999228 0.00195902 0)
(0.999475 0.00201871 0)
(0.99959 0.00208921 0)
(1.00002 -0.000142412 0)
(0.999745 -0.000121423 0)
(0.999746 0.000317146 0)
(0.999996 5.7552e-05 0)
(0.999771 -1.51026e-05 0)
(0.99961 0.000451484 0)
(0.999885 0.000357375 0)
(0.999803 0.00014233 0)
(0.999418 0.000501376 0)
(0.999464 0.000793381 0)
(0.999695 0.00070154 0)
(0.999552 0.000749767 0)
(0.999298 0.00107011 0)
(0.999354 0.00128794 0)
(0.999538 0.00132827 0)
(0.999526 0.00142107 0)
(0.999382 0.00164806 0)
(0.999375 0.00188034 0)
(0.999546 0.00198656 0)
(0.999683 0.00205118 0)
(1.00001 -9.95301e-05 0)
(0.99981 -9.95575e-05 0)
(0.999776 0.000239978 0)
(0.999955 0.000116318 0)
(0.999822 3.57472e-05 0)
(0.999669 0.000376571 0)
(0.999835 0.000396752 0)
(0.999819 0.000248495 0)
(0.999544 0.000483478 0)
(0.999517 0.000765852 0)
(0.999684 0.000773766 0)
(0.999637 0.000804748 0)
(0.999454 0.0010415 0)
(0.999451 0.00126641 0)
(0.999588 0.00135584 0)
(0.999635 0.00143536 0)
(0.999564 0.00159874 0)
(0.99954 0.00179635 0)
(0.999645 0.00192566 0)
(0.999772 0.00199929 0)
(1.00001 -6.66434e-05 0)
(0.999861 -7.31045e-05 0)
(0.999809 0.000182935 0)
(0.999928 0.000150773 0)
(0.999857 8.80143e-05 0)
(0.999727 0.000328556 0)
(0.999813 0.000411856 0)
(0.999828 0.000336045 0)
(0.999648 0.000490558 0)
(0.99959 0.000737287 0)
(0.999697 0.000813198 0)
(0.999703 0.000855811 0)
(0.999591 0.00102906 0)
(0.999566 0.00123309 0)
(0.999659 0.00135284 0)
(0.999727 0.00143645 0)
(0.999715 0.00155976 0)
(0.999701 0.00171728 0)
(0.999765 0.00184671 0)
(0.999868 0.00193033 0)
(1.00001 -4.18125e-05 0)
(0.999899 -4.562e-05 0)
(0.999843 0.00014433 0)
(0.999915 0.000168626 0)
(0.99988 0.000135134 0)
(0.99978 0.0003035 0)
(0.999816 0.000413985 0)
(0.999839 0.000400752 0)
(0.999731 0.000511258 0)
(0.999671 0.000714823 0)
(0.999732 0.00082764 0)
(0.999762 0.000891881 0)
(0.999709 0.00102547 0)
(0.999686 0.00119835 0)
(0.999746 0.00132773 0)
(0.999816 0.00141914 0)
(0.99984 0.00152046 0)
(0.999848 0.00164436 0)
(0.999892 0.00176063 0)
(0.999973 0.00184717 0)
(1 -2.32638e-05 0)
(0.999928 -1.96725e-05 0)
(0.999875 0.000121188 0)
(0.999913 0.000176379 0)
(0.999898 0.000173368 0)
(0.999828 0.000295003 0)
(0.999835 0.000410664 0)
(0.999856 0.000443747 0)
(0.999799 0.000535111 0)
(0.999753 0.000699943 0)
(0.999786 0.000825941 0)
(0.999822 0.000909246 0)
(0.99981 0.00102144 0)
(0.999802 0.00116451 0)
(0.999844 0.00128904 0)
(0.999907 0.00138416 0)
(0.99995 0.00147418 0)
(0.999977 0.00157396 0)
(1.00002 0.00167275 0)
(1.00008 0.00175466 0)
(1 -9.20972e-06 0)
(0.999949 3.40394e-06 0)
(0.999904 0.000109801 0)
(0.999919 0.000178985 0)
(0.999914 0.000201894 0)
(0.999869 0.000296319 0)
(0.999864 0.000406225 0)
(0.99988 0.000468903 0)
(0.999857 0.000554646 0)
(0.99983 0.000690039 0)
(0.99985 0.0008144 0)
(0.999886 0.00090899 0)
(0.999899 0.00101017 0)
(0.999909 0.00112943 0)
(0.999945 0.00124206 0)
(1 0.00133506 0)
(1.00005 0.00141791 0)
(1.00009 0.00150133 0)
(1.00013 0.00158373 0)
(1.00019 0.00165661 0)
(1 1.09234e-06 0)
(0.999964 2.25127e-05 0)
(0.999928 0.000106339 0)
(0.999931 0.000179527 0)
(0.999931 0.000221458 0)
(0.999905 0.000301561 0)
(0.999899 0.000402074 0)
(0.999912 0.00048031 0)
(0.999909 0.000565752 0)
(0.999901 0.000680804 0)
(0.999919 0.0007964 0)
(0.999954 0.0008941 0)
(0.999981 0.000988558 0)
(1.00001 0.00109024 0)
(1.00004 0.00118907 0)
(1.00009 0.00127547 0)
(1.00014 0.00135157 0)
(1.00019 0.0014234 0)
(1.00024 0.00149233 0)
(1.00029 0.00155497 0)
(1 8.41746e-06 0)
(0.999975 3.75868e-05 0)
(0.999949 0.000107487 0)
(0.999947 0.000179442 0)
(0.999949 0.000233264 0)
(0.999938 0.000306373 0)
(0.999936 0.000397533 0)
(0.999949 0.000481342 0)
(0.999959 0.000566905 0)
(0.999967 0.000668213 0)
(0.999988 0.000772881 0)
(1.00002 0.000867541 0)
(1.00006 0.000955948 0)
(1.00009 0.00104459 0)
(1.00013 0.00113037 0)
(1.00018 0.00120782 0)
(1.00023 0.00127642 0)
(1.00029 0.001339 0)
(1.00033 0.00139718 0)
(1.00039 0.00145017 0)
(1 1.39641e-05 0)
(0.999984 4.90844e-05 0)
(0.999966 0.000110512 0)
(0.999964 0.000178893 0)
(0.999968 0.00023858 0)
(0.999968 0.000307985 0)
(0.999973 0.000390982 0)
(0.999989 0.000474188 0)
(1.00001 0.000558078 0)
(1.00003 0.000649462 0)
(1.00005 0.000743302 0)
(1.00009 0.000831295 0)
(1.00013 0.000912881 0)
(1.00017 0.000991082 0)
(1.00022 0.00106538 0)
(1.00027 0.00113324 0)
(1.00032 0.00119379 0)
(1.00037 0.00124816 0)
(1.00042 0.0012975 0)
(1.00047 0.00134203 0)
(1 1.78923e-05 0)
(0.999991 5.71916e-05 0)
(0.999981 0.000113331 0)
(0.999981 0.000177282 0)
(0.999989 0.00023835 0)
(0.999997 0.000304783 0)
(1.00001 0.000380714 0)
(1.00003 0.00045984 0)
(1.00006 0.000539856 0)
(1.00008 0.000622957 0)
(1.00012 0.000706713 0)
(1.00016 0.000786366 0)
(1.0002 0.000860224 0)
(1.00025 0.000929235 0)
(1.00029 0.000993507 0)
(1.00034 0.00105213 0)
(1.00039 0.00110457 0)
(1.00044 0.0011513 0)
(1.00049 0.00119305 0)
(1.00054 0.00123029 0)
(1 2.04013e-05 0)
(0.999996 6.20571e-05 0)
(0.999993 0.000114429 0)
(0.999998 0.000173658 0)
(1.00001 0.000233027 0)
(1.00002 0.000295897 0)
(1.00004 0.0003653 0)
(1.00007 0.000438462 0)
(1.0001 0.000512791 0)
(1.00014 0.000587975 0)
(1.00017 0.000662341 0)
(1.00022 0.000733128 0)
(1.00026 0.000798722 0)
(1.00031 0.00085913 0)
(1.00036 0.000914469 0)
(1.00041 0.000964565 0)
(1.00046 0.00100927 0)
(1.00051 0.00104889 0)
(1.00056 0.00108392 0)
(1.00061 0.00111485 0)
(1 2.16321e-05 0)
(1 6.38515e-05 0)
(1 0.000112793 0)
(1.00001 0.00016706 0)
(1.00003 0.000222672 0)
(1.00005 0.000280932 0)
(1.00008 0.000343759 0)
(1.00011 0.000409907 0)
(1.00014 0.000477202 0)
(1.00018 0.000544286 0)
(1.00023 0.000609657 0)
(1.00027 0.000671555 0)
(1.00032 0.000728737 0)
(1.00037 0.000780912 0)
(1.00042 0.000828124 0)
(1.00047 0.000870473 0)
(1.00052 0.000908061 0)
(1.00057 0.000941189 0)
(1.00062 0.000970252 0)
(1.00067 0.000995689 0)
(1 2.16346e-05 0)
(1 6.26332e-05 0)
(1.00001 0.000107704 0)
(1.00003 0.000156571 0)
(1.00005 0.000206993 0)
(1.00008 0.000259587 0)
(1.00011 0.000315464 0)
(1.00014 0.000373954 0)
(1.00018 0.000433323 0)
(1.00023 0.000491994 0)
(1.00027 0.000548544 0)
(1.00032 0.000601705 0)
(1.00037 0.000650571 0)
(1.00042 0.000694833 0)
(1.00047 0.000734515 0)
(1.00053 0.000769806 0)
(1.00057 0.000800939 0)
(1.00062 0.000828232 0)
(1.00067 0.000852038 0)
(1.00071 0.000872734 0)
(1 2.04162e-05 0)
(1.00001 5.8345e-05 0)
(1.00002 9.86172e-05 0)
(1.00004 0.000141354 0)
(1.00007 0.000185362 0)
(1.0001 0.000231157 0)
(1.00013 0.000279378 0)
(1.00017 0.000329536 0)
(1.00022 0.000380237 0)
(1.00026 0.000430064 0)
(1.00031 0.000477743 0)
(1.00036 0.000522291 0)
(1.00042 0.00056303 0)
(1.00047 0.000599713 0)
(1.00052 0.000632358 0)
(1.00057 0.000661176 0)
(1.00062 0.000686432 0)
(1.00067 0.000708463 0)
(1.00071 0.000727599 0)
(1.00075 0.000744191 0)
(1 1.82151e-05 0)
(1.00001 5.13728e-05 0)
(1.00003 8.55178e-05 0)
(1.00005 0.00012092 0)
(1.00008 0.000157026 0)
(1.00012 0.000194346 0)
(1.00016 0.000233284 0)
(1.0002 0.000273453 0)
(1.00025 0.000313817 0)
(1.0003 0.000353256 0)
(1.00035 0.000390764 0)
(1.0004 0.000425599 0)
(1.00045 0.000457288 0)
(1.00051 0.000485666 0)
(1.00056 0.00051077 0)
(1.00061 0.000532789 0)
(1.00066 0.000551962 0)
(1.0007 0.000568576 0)
(1.00075 0.000582911 0)
(1.00079 0.000595257 0)
(1 1.56119e-05 0)
(1.00001 4.42854e-05 0)
(1.00003 7.37291e-05 0)
(1.00006 0.000104232 0)
(1.00009 0.000135514 0)
(1.00013 0.00016788 0)
(1.00017 0.000201478 0)
(1.00022 0.000235956 0)
(1.00027 0.000270507 0)
(1.00032 0.000304183 0)
(1.00037 0.0003361 0)
(1.00043 0.000365626 0)
(1.00048 0.000392398 0)
(1.00053 0.000416315 0)
(1.00059 0.000437448 0)
(1.00064 0.00045598 0)
(1.00068 0.000472138 0)
(1.00073 0.000486167 0)
(1.00077 0.000498304 0)
(1.00081 0.000508778 0)
(1 7.14612e-06 0)
(1.00001 2.06232e-05 0)
(1.00004 3.47298e-05 0)
(1.00007 4.95701e-05 0)
(1.00011 6.50068e-05 0)
(1.00015 8.11103e-05 0)
(1.00019 9.7864e-05 0)
(1.00024 0.000115087 0)
(1.0003 0.00013238 0)
(1.00035 0.000149275 0)
(1.0004 0.000165305 0)
(1.00046 0.000180151 0)
(1.00051 0.000193621 0)
(1.00057 0.000205675 0)
(1.00062 0.000216349 0)
(1.00067 0.000225743 0)
(1.00072 0.00023397 0)
(1.00076 0.000241163 0)
(1.0008 0.00024744 0)
(1.00084 0.000252919 0)
(0.981533 0.00186017 0)
(0.958369 0.00308303 0)
(0.935503 0.00339255 0)
(0.912013 0.00338035 0)
(0.88773 0.0034862 0)
(0.862599 0.00360591 0)
(0.836952 0.00374114 0)
(0.809323 0.00376866 0)
(0.781519 0.00346476 0)
(0.755703 0.00334656 0)
(0.728985 0.00346346 0)
(0.700367 0.00338861 0)
(0.671523 0.00333976 0)
(0.642519 0.00330493 0)
(0.613251 0.00314426 0)
(0.583898 0.00311821 0)
(0.554321 0.00306701 0)
(0.524765 0.00280907 0)
(0.495646 0.0026656 0)
(0.467159 0.00259583 0)
(0.439878 0.00216714 0)
(0.415756 0.00132031 0)
(0.39772 0.00033298 0)
(0.387632 -0.00040741 0)
(0.384628 -0.000668349 0)
(0.385717 -0.000662721 0)
(0.387893 -0.000461162 0)
(0.389652 -0.00027922 0)
(0.390808 -0.000151955 0)
(0.391638 -6.64237e-05 0)
(0.39232 -1.43311e-05 0)
(0.392899 1.06478e-05 0)
(0.393377 1.80646e-05 0)
(0.393757 1.55247e-05 0)
(0.394043 9.10341e-06 0)
(0.394244 2.91687e-06 0)
(0.394377 -1.13601e-06 0)
(0.39446 -2.89251e-06 0)
(0.394511 -3.0645e-06 0)
(0.394543 -2.50841e-06 0)
(0.394565 -1.82109e-06 0)
(0.394581 -1.27133e-06 0)
(0.394593 -9.03732e-07 0)
(0.394603 -6.77152e-07 0)
(0.394612 -5.41866e-07 0)
(0.394619 -4.54351e-07 0)
(0.394626 -3.87053e-07 0)
(0.394631 -3.32277e-07 0)
(0.394636 -2.86431e-07 0)
(0.39464 -2.47511e-07 0)
(0.394643 -2.13949e-07 0)
(0.394646 -1.84729e-07 0)
(0.394648 -1.59138e-07 0)
(0.394651 -1.36761e-07 0)
(0.394652 -1.17582e-07 0)
(0.394654 -1.01316e-07 0)
(0.394655 -8.71318e-08 0)
(0.394656 -7.45217e-08 0)
(0.394657 -6.35504e-08 0)
(0.394658 -5.41078e-08 0)
(0.394658 -4.60994e-08 0)
(0.394659 -3.91956e-08 0)
(0.394659 -3.30977e-08 0)
(0.39466 -2.77623e-08 0)
(0.39466 -2.34153e-08 0)
(0.39466 -1.9889e-08 0)
(0.39466 -1.67477e-08 0)
(0.394661 -1.40986e-08 0)
(0.394661 -1.16354e-08 0)
(0.394661 -9.56249e-09 0)
(0.394661 -7.93184e-09 0)
(0.394661 -6.52653e-09 0)
(0.394661 -5.46976e-09 0)
(0.394661 -4.38931e-09 0)
(0.394661 -3.61696e-09 0)
(0.394661 -2.74573e-09 0)
(0.394661 -2.42512e-09 0)
(0.394661 -1.44695e-09 0)
(0.394661 -2.11073e-09 0)
(0.394661 2.50896e-10 0)
(0.394661 -3.54932e-09 0)
(0.394661 4.59549e-09 0)
(0.394661 -1.00561e-08 0)
(0.39466 1.69876e-08 0)
(0.394662 -2.9729e-08 0)
(0.394659 4.96244e-08 0)
(0.394664 -7.82382e-08 0)
(0.394656 1.20608e-07 0)
(0.394668 -1.68606e-07 0)
(0.39465 2.29512e-07 0)
(0.394676 -2.65352e-07 0)
(0.39464 3.0411e-07 0)
(0.394683 -2.21011e-07 0)
(0.394629 1.28165e-07 0)
(0.394683 2.89669e-07 0)
(0.394609 -2.83609e-07 0)
(0.394677 1.51083e-06 0)
(0.39451 -6.84041e-07 0)
(0.394669 2.46091e-06 0)
(0.394216 5.48444e-06 0)
(0.995197 0.00360425 0)
(0.994788 0.00567136 0)
(0.994442 0.00631103 0)
(0.993464 0.00621477 0)
(0.9919 0.00613751 0)
(0.989855 0.00621481 0)
(0.987271 0.00636894 0)
(0.983236 0.00655138 0)
(0.978211 0.00642091 0)
(0.973412 0.00618768 0)
(0.96803 0.00639734 0)
(0.961378 0.00666635 0)
(0.953912 0.00660474 0)
(0.945781 0.00660721 0)
(0.93689 0.0066888 0)
(0.927178 0.00657367 0)
(0.916702 0.00651773 0)
(0.905607 0.00657061 0)
(0.893868 0.00641796 0)
(0.881482 0.00610713 0)
(0.868915 0.00574581 0)
(0.857151 0.00504572 0)
(0.847203 0.00372764 0)
(0.839819 0.00210363 0)
(0.835189 0.000809557 0)
(0.832842 0.000125996 0)
(0.831797 -1.76971e-05 0)
(0.831235 -3.97501e-05 0)
(0.830939 -6.45144e-05 0)
(0.831115 -0.000109324 0)
(0.831964 -0.000142118 0)
(0.833467 -0.000148245 0)
(0.835396 -0.00013024 0)
(0.837438 -9.94225e-05 0)
(0.839307 -6.67396e-05 0)
(0.840823 -3.94463e-05 0)
(0.841929 -2.05349e-05 0)
(0.842661 -9.50598e-06 0)
(0.843104 -4.09066e-06 0)
(0.843352 -1.89945e-06 0)
(0.84348 -1.22518e-06 0)
(0.84354 -1.10799e-06 0)
(0.843567 -1.09034e-06 0)
(0.843577 -1.05598e-06 0)
(0.84358 -9.85814e-07 0)
(0.843579 -8.79866e-07 0)
(0.843577 -7.55335e-07 0)
(0.843574 -6.31655e-07 0)
(0.843571 -5.20187e-07 0)
(0.843568 -4.25412e-07 0)
(0.843565 -3.50289e-07 0)
(0.843562 -2.8678e-07 0)
(0.843559 -2.33177e-07 0)
(0.843556 -1.88675e-07 0)
(0.843554 -1.52376e-07 0)
(0.843551 -1.23022e-07 0)
(0.843549 -9.91626e-08 0)
(0.843547 -7.94211e-08 0)
(0.843545 -6.29622e-08 0)
(0.843544 -4.9528e-08 0)
(0.843542 -3.89185e-08 0)
(0.843541 -3.02707e-08 0)
(0.843539 -2.3219e-08 0)
(0.843538 -1.72965e-08 0)
(0.843537 -1.26254e-08 0)
(0.843536 -9.32388e-09 0)
(0.843536 -6.77708e-09 0)
(0.843535 -4.82459e-09 0)
(0.843534 -2.97847e-09 0)
(0.843534 -1.56589e-09 0)
(0.843533 -4.9666e-10 0)
(0.843533 1.79565e-10 0)
(0.843532 4.95751e-10 0)
(0.843532 9.63354e-10 0)
(0.843532 1.0363e-09 0)
(0.843531 1.61996e-09 0)
(0.843531 1.04928e-09 0)
(0.843531 2.44923e-09 0)
(0.843531 -2.21529e-10 0)
(0.843531 4.96808e-09 0)
(0.843531 -4.83384e-09 0)
(0.84353 1.38716e-08 0)
(0.843531 -2.02036e-08 0)
(0.843529 4.15801e-08 0)
(0.843533 -6.53628e-08 0)
(0.843525 1.15433e-07 0)
(0.84354 -1.74879e-07 0)
(0.843515 2.74246e-07 0)
(0.843555 -3.74504e-07 0)
(0.843493 5.10377e-07 0)
(0.843582 -5.66019e-07 0)
(0.843459 6.03322e-07 0)
(0.843615 -2.95875e-07 0)
(0.843428 4.00928e-09 0)
(0.843628 1.25532e-06 0)
(0.84341 -1.46796e-06 0)
(0.843614 4.02369e-06 0)
(0.843348 -1.05622e-06 0)
(0.843575 3.52894e-06 0)
(0.843161 1.06622e-05 0)
(0.996047 0.0029403 0)
(0.99589 0.00421969 0)
(0.996239 0.00495333 0)
(0.996497 0.00504138 0)
(0.996639 0.00518595 0)
(0.997287 0.00544938 0)
(0.998121 0.00570046 0)
(0.998316 0.00604511 0)
(0.998086 0.00595038 0)
(0.997776 0.00569706 0)
(0.997392 0.00605753 0)
(0.996981 0.00639133 0)
(0.996239 0.00638016 0)
(0.995246 0.00658495 0)
(0.994357 0.00678727 0)
(0.993066 0.00673808 0)
(0.991248 0.00682626 0)
(0.98962 0.00699746 0)
(0.987878 0.00684143 0)
(0.985334 0.00653416 0)
(0.982635 0.00632162 0)
(0.98061 0.00563915 0)
(0.978857 0.003983 0)
(0.976685 0.00193263 0)
(0.974365 0.000414724 0)
(0.972673 -0.000178053 0)
(0.971785 -0.000243859 0)
(0.971347 -0.000194207 0)
(0.971086 -0.000189194 0)
(0.971014 -0.000260682 0)
(0.971248 -0.000370616 0)
(0.971816 -0.000467598 0)
(0.972638 -0.000516871 0)
(0.973569 -0.000504715 0)
(0.974465 -0.000439267 0)
(0.975218 -0.000343746 0)
(0.97578 -0.000243911 0)
(0.976154 -0.000158104 0)
(0.976377 -9.42363e-05 0)
(0.976494 -5.19681e-05 0)
(0.976547 -2.66964e-05 0)
(0.976563 -1.28778e-05 0)
(0.976562 -5.8594e-06 0)
(0.976552 -2.49747e-06 0)
(0.97654 -9.00842e-07 0)
(0.976527 -1.7778e-07 0)
(0.976514 1.49814e-07 0)
(0.976502 3.0086e-07 0)
(0.976491 3.71531e-07 0)
(0.97648 4.00999e-07 0)
(0.97647 4.04382e-07 0)
(0.976462 3.9683e-07 0)
(0.976454 3.82786e-07 0)
(0.976446 3.63956e-07 0)
(0.97644 3.41554e-07 0)
(0.976434 3.16787e-07 0)
(0.976428 2.91154e-07 0)
(0.976424 2.66067e-07 0)
(0.976419 2.4202e-07 0)
(0.976415 2.18938e-07 0)
(0.976412 1.96714e-07 0)
(0.976409 1.76074e-07 0)
(0.976406 1.56964e-07 0)
(0.976404 1.3969e-07 0)
(0.976402 1.2372e-07 0)
(0.9764 1.08628e-07 0)
(0.976398 9.51068e-08 0)
(0.976397 8.28905e-08 0)
(0.976395 7.25097e-08 0)
(0.976394 6.31235e-08 0)
(0.976393 5.4778e-08 0)
(0.976392 4.72425e-08 0)
(0.976392 4.03477e-08 0)
(0.976391 3.47679e-08 0)
(0.97639 2.95914e-08 0)
(0.97639 2.56292e-08 0)
(0.97639 2.14168e-08 0)
(0.976389 1.9026e-08 0)
(0.976389 1.46763e-08 0)
(0.976389 1.5413e-08 0)
(0.976389 7.93843e-09 0)
(0.976388 1.71574e-08 0)
(0.976389 -4.05417e-09 0)
(0.976386 3.14399e-08 0)
(0.976391 -3.25004e-08 0)
(0.976382 7.52625e-08 0)
(0.976398 -1.01751e-07 0)
(0.97637 1.82466e-07 0)
(0.976416 -2.45822e-07 0)
(0.976343 3.81571e-07 0)
(0.976451 -4.3341e-07 0)
(0.976299 5.44488e-07 0)
(0.976498 -2.40585e-07 0)
(0.976253 6.14146e-08 0)
(0.976525 1.58911e-06 0)
(0.976236 -1.87702e-06 0)
(0.976494 5.51749e-06 0)
(0.976233 -1.3849e-06 0)
(0.976413 4.70911e-06 0)
(0.976117 1.24042e-05 0)
(0.996422 0.00280171 0)
(0.996219 0.00392881 0)
(0.996454 0.00478718 0)
(0.996674 0.00516052 0)
(0.996737 0.00544476 0)
(0.997442 0.00566512 0)
(0.998531 0.00579358 0)
(0.999065 0.00601883 0)
(0.999407 0.00600847 0)
(0.999729 0.00593241 0)
(0.999888 0.0062665 0)
(1.00021 0.00655196 0)
(1.00044 0.00660248 0)
(1.00057 0.00677878 0)
(1.0011 0.00691917 0)
(1.00154 0.00691017 0)
(1.00161 0.00703371 0)
(1.0021 0.00712085 0)
(1.00284 0.00690138 0)
(1.00296 0.00666668 0)
(1.003 0.00644916 0)
(1.00382 0.00565335 0)
(1.00469 0.00401486 0)
(1.0044 0.00219794 0)
(1.00307 0.000950488 0)
(1.00173 0.000366833 0)
(1.00092 0.000180467 0)
(1.00052 0.000121461 0)
(1.00027 3.73522e-05 0)
(1.00006 -8.18266e-05 0)
(0.99992 -0.000219024 0)
(0.99984 -0.000324014 0)
(0.999811 -0.000367506 0)
(0.999821 -0.000347674 0)
(0.99986 -0.000284369 0)
(0.999917 -0.000205103 0)
(0.999974 -0.000131988 0)
(1.00002 -7.61925e-05 0)
(1.00005 -3.93562e-05 0)
(1.00007 -1.78368e-05 0)
(1.00007 -6.54077e-06 0)
(1.00006 -1.13977e-06 0)
(1.00004 1.19267e-06 0)
(1.00003 2.00925e-06 0)
(1.00001 2.2177e-06 0)
(0.999991 2.18929e-06 0)
(0.999974 2.09263e-06 0)
(0.999958 1.97591e-06 0)
(0.999943 1.85103e-06 0)
(0.999929 1.71995e-06 0)
(0.999917 1.58594e-06 0)
(0.999906 1.45208e-06 0)
(0.999895 1.32245e-06 0)
(0.999886 1.19835e-06 0)
(0.999878 1.08043e-06 0)
(0.99987 9.694e-07 0)
(0.999863 8.66223e-07 0)
(0.999857 7.7169e-07 0)
(0.999852 6.85634e-07 0)
(0.999847 6.07313e-07 0)
(0.999843 5.35843e-07 0)
(0.999839 4.71572e-07 0)
(0.999836 4.13825e-07 0)
(0.999833 3.62437e-07 0)
(0.99983 3.16431e-07 0)
(0.999828 2.74934e-07 0)
(0.999826 2.38327e-07 0)
(0.999824 2.05855e-07 0)
(0.999822 1.77948e-07 0)
(0.999821 1.53106e-07 0)
(0.99982 1.31432e-07 0)
(0.999819 1.12329e-07 0)
(0.999818 9.54134e-08 0)
(0.999817 8.13649e-08 0)
(0.999817 6.8773e-08 0)
(0.999816 5.85859e-08 0)
(0.999816 4.89816e-08 0)
(0.999815 4.20037e-08 0)
(0.999815 3.39492e-08 0)
(0.999814 3.12846e-08 0)
(0.999815 2.12254e-08 0)
(0.999814 2.80655e-08 0)
(0.999815 5.40962e-09 0)
(0.999812 3.77754e-08 0)
(0.999817 -2.23271e-08 0)
(0.999807 7.41032e-08 0)
(0.999824 -8.08574e-08 0)
(0.999795 1.5701e-07 0)
(0.999842 -1.79705e-07 0)
(0.999768 2.80415e-07 0)
(0.999879 -2.43994e-07 0)
(0.999721 2.9057e-07 0)
(0.99993 1.48962e-07 0)
(0.999669 -3.75809e-07 0)
(0.999963 2.079e-06 0)
(0.999652 -1.94818e-06 0)
(0.999928 5.68676e-06 0)
(0.999669 -7.38522e-07 0)
(0.999832 4.82295e-06 0)
(0.999574 1.16074e-05 0)
(0.996698 0.00284432 0)
(0.996491 0.00381523 0)
(0.996624 0.00459091 0)
(0.996776 0.0050078 0)
(0.996786 0.00535185 0)