/*--------------------------------*- C++ -*----------------------------------*\
  =========                 |
  \\      /  F ield         | OpenFOAM: The Open Source CFD Toolbox
   \\    /   O peration     | Website:  https://openfoam.org
    \\  /    A nd           | Version:  10
     \\/     M anipulation  |
\*---------------------------------------------------------------------------*/
FoamFile
{
    format      ascii;
    class       volScalarField;
    location    "0.9";
    object      p;
}
// * * * * * * * * * * * * * * * * * * * * * * * * * * * * * * * * * * * * * //

dimensions      [0 2 -2 0 0 0 0];

internalField   nonuniform List<scalar> 
4800
(
3.06125e-11
2.78476e-05
-5.25515e-05
-0.000109498
-0.000175141
-0.000261019
-0.000308509
-0.00036723
-0.000427598
-0.000435532
-0.000454772
-0.000435291
-0.000384277
-0.000276623
-0.00012691
0.000140701
0.000521675
0.00102503
0.00165968
0.00235197
6.80442e-06
2.24477e-05
-4.84998e-05
-0.000113164
-0.000171156
-0.000264194
-0.000303797
-0.000369382
-0.000422055
-0.000435771
-0.000446367
-0.0004356
-0.000377942
-0.000279716
-0.000111714
0.000131427
0.000512373
0.000953956
0.00143699
0.00197179
9.17132e-06
1.95252e-05
-4.72759e-05
-0.000114183
-0.000169437
-0.000265157
-0.000301423
-0.000369179
-0.000419502
-0.000433434
-0.000443796
-0.000433512
-0.000376251
-0.000279239
-0.000115572
0.000114708
0.000448677
0.000822322
0.0012281
0.00169883
1.60246e-05
1.46968e-05
-4.4952e-05
-0.000115728
-0.000168203
-0.000264661
-0.000301107
-0.000366256
-0.000419169
-0.000427476
-0.000443523
-0.000427755
-0.000370898
-0.000278528
-0.000123881
8.80222e-05
0.000369829
0.000668284
0.00103213
0.00146912
2.06338e-05
1.07393e-05
-4.38432e-05
-0.000115904
-0.000167785
-0.000262291
-0.000302742
-0.00036187
-0.000418484
-0.000422858
-0.00043542
-0.000423707
-0.000367603
-0.000284086
-0.000145164
3.11466e-05
0.000240191
0.000512678
0.000851983
0.00125382
2.6606e-05
7.94988e-06
-4.43017e-05
-0.000114583
-0.000169178
-0.000256814
-0.000305187
-0.000357975
-0.000413691
-0.000417028
-0.000429291
-0.000421085
-0.000368593
-0.000297567
-0.000188523
-7.15044e-05
0.000111168
0.000373612
0.000685674
0.00104734
3.21908e-05
6.46751e-06
-4.60904e-05
-0.000112579
-0.000175159
-0.000252846
-0.000303491
-0.000356864
-0.000406967
-0.000409629
-0.000424379
-0.000419123
-0.000376628
-0.000332544
-0.000274807
-0.000173887
-1.0092e-06
0.000242195
0.000519913
0.000841038
3.70806e-05
7.60691e-06
-4.92059e-05
-0.000109992
-0.000174987
-0.000252312
-0.000297886
-0.000351027
-0.000401918
-0.000403032
-0.000419552
-0.000425433
-0.000401643
-0.000403352
-0.000364452
-0.000260305
-0.000103662
0.000105634
0.000347531
0.000633093
4.13308e-05
1.1231e-05
-5.21515e-05
-0.000111264
-0.000170148
-0.000252015
-0.000294468
-0.000339469
-0.00039548
-0.000399853
-0.000420178
-0.000449106
-0.00046152
-0.000476213
-0.000439308
-0.000340295
-0.000209327
-3.90102e-05
0.000167272
0.0004236
4.50046e-05
1.60993e-05
-5.24221e-05
-0.000114918
-0.000164892
-0.000246736
-0.000292082
-0.000330132
-0.00038486
-0.000401177
-0.0004353
-0.00049663
-0.000527978
-0.000541143
-0.000508405
-0.000425049
-0.00032199
-0.000190829
-1.95367e-05
0.000212646
4.81121e-05
2.08659e-05
-4.85335e-05
-0.000118033
-0.000166395
-0.000235902
-0.000285733
-0.000324495
-0.000376838
-0.000409966
-0.000476374
-0.000559528
-0.000588986
-0.000596356
-0.00057861
-0.000518331
-0.000442483
-0.000347445
-0.000210003
4.79008e-07
5.17162e-05
2.40205e-05
-3.97331e-05
-0.000116972
-0.000172676
-0.000228275
-0.000273452
-0.000321147
-0.000381643
-0.000432417
-0.000525073
-0.00061944
-0.000647443
-0.000653683
-0.000654012
-0.000620823
-0.000571801
-0.000508362
-0.000402789
-0.000213346
5.54938e-05
2.70725e-05
-3.17227e-05
-0.000108583
-0.000176659
-0.000228751
-0.000262034
-0.00031581
-0.000402601
-0.000473504
-0.000568993
-0.000668694
-0.000705845
-0.000717292
-0.000736097
-0.000732126
-0.000709837
-0.000673975
-0.000596857
-0.000427558
6.05008e-05
3.02932e-05
-2.59181e-05
-9.39732e-05
-0.000171047
-0.000238879
-0.000265044
-0.000312226
-0.00042919
-0.000531725
-0.000617853
-0.000717081
-0.000766687
-0.000789111
-0.000825115
-0.000849559
-0.000855046
-0.000843753
-0.000790707
-0.000639791
6.62484e-05
3.56914e-05
-2.25492e-05
-8.13016e-05
-0.00015388
-0.000244539
-0.000289733
-0.000331457
-0.000449616
-0.000574064
-0.000669901
-0.000770405
-0.00083298
-0.000869024
-0.000921477
-0.000972892
-0.00100715
-0.00101887
-0.000985433
-0.000849914
7.17084e-05
4.51523e-05
-1.80535e-05
-7.42384e-05
-0.000134521
-0.000239952
-0.00032355
-0.000381788
-0.000480386
-0.000604743
-0.000714904
-0.000824162
-0.00090372
-0.000956522
-0.00102594
-0.00110217
-0.00116469
-0.00119906
-0.00118194
-0.00105839
7.73422e-05
5.59035e-05
-7.11674e-06
-7.44861e-05
-0.000125726
-0.000230387
-0.000350371
-0.000439806
-0.000538176
-0.000646556
-0.000754123
-0.000875143
-0.000976075
-0.00105047
-0.00113812
-0.00123656
-0.00132553
-0.00138245
-0.00138022
-0.00126611
8.49456e-05
6.56467e-05
9.09929e-06
-7.17157e-05
-0.000133764
-0.000232091
-0.000368661
-0.000490797
-0.000602795
-0.000705712
-0.000805589
-0.000928264
-0.00104937
-0.00114838
-0.00125666
-0.00137582
-0.00148833
-0.0015672
-0.00157967
-0.00147359
9.53781e-05
7.48833e-05
2.18318e-05
-6.41122e-05
-0.000148799
-0.000251176
-0.000388143
-0.000529702
-0.000661119
-0.000774852
-0.000873393
-0.000993235
-0.00112742
-0.00125007
-0.00138039
-0.00151974
-0.00165292
-0.00175224
-0.00177923
-0.00168061
0.000108209
8.55191e-05
3.03712e-05
-5.82069e-05
-0.000162801
-0.000284048
-0.000422123
-0.000566428
-0.000709368
-0.000840582
-0.000950408
-0.00107168
-0.00121524
-0.00135737
-0.00150841
-0.00166763
-0.00181935
-0.00193715
-0.00197793
-0.00188634
0.000122205
9.83674e-05
3.58742e-05
-6.0208e-05
-0.000177443
-0.000317551
-0.000466274
-0.000610855
-0.000757259
-0.000901838
-0.00102926
-0.00115954
-0.00131308
-0.00147242
-0.0016412
-0.00181881
-0.0019873
-0.00212129
-0.00217476
-0.00208964
0.000137355
0.000112001
3.97492e-05
-7.02972e-05
-0.000198913
-0.000349863
-0.000510394
-0.000662927
-0.000811253
-0.000964758
-0.00110953
-0.00125297
-0.00141837
-0.00159467
-0.0017798
-0.00197336
-0.00215694
-0.00230441
-0.00236935
-0.00229017
0.000153154
0.000124796
4.146e-05
-8.43411e-05
-0.000227824
-0.000386561
-0.000555186
-0.000717207
-0.000871237
-0.00103203
-0.00119231
-0.00135128
-0.00152883
-0.00172191
-0.00192331
-0.00213075
-0.00232774
-0.0024864
-0.00256134
-0.00248775
0.000168726
0.000136109
4.01806e-05
-0.000101088
-0.000260808
-0.000429921
-0.00060345
-0.000773378
-0.000935295
-0.00110397
-0.00127841
-0.0014538
-0.00164465
-0.00185263
-0.00207044
-0.00229074
-0.002499
-0.00266715
-0.00275021
-0.00268177
0.000183011
0.000145179
3.56148e-05
-0.000120953
-0.000296096
-0.000476642
-0.000656188
-0.000833017
-0.00100362
-0.00118119
-0.00136819
-0.00155957
-0.00176507
-0.00198639
-0.00221932
-0.00245248
-0.00267017
-0.00284617
-0.00293537
-0.00287131
0.000194666
0.000151216
2.82703e-05
-0.000144012
-0.00033325
-0.000525553
-0.000713377
-0.00089714
-0.00107604
-0.00126307
-0.00146237
-0.00166831
-0.00188868
-0.00212319
-0.00236911
-0.00261435
-0.00284045
-0.00302286
-0.00311645
-0.00305562
0.000202757
0.00015357
1.78639e-05
-0.000169323
-0.000372483
-0.000576384
-0.000773443
-0.000965696
-0.00115286
-0.00134879
-0.00156071
-0.00178033
-0.00201404
-0.00226208
-0.00251908
-0.00277439
-0.00300824
-0.00319623
-0.00329333
-0.00323446
0.000206275
0.000151228
4.18544e-06
-0.000196423
-0.000413124
-0.000629031
-0.000835705
-0.00103725
-0.00123415
-0.0014385
-0.00166191
-0.0018953
-0.00214014
-0.00240068
-0.00266837
-0.00293184
-0.00317258
-0.00336528
-0.00346566
-0.00340794
0.000203991
0.000143695
-1.30245e-05
-0.000225349
-0.000454435
-0.000682752
-0.000899956
-0.00111083
-0.00131831
-0.00153186
-0.00176507
-0.00201196
-0.00226724
-0.00253722
-0.00281535
-0.00308665
-0.00333314
-0.00352914
-0.00363203
-0.00357525
0.000195389
0.000130538
-3.41767e-05
-0.000256416
-0.000496428
-0.000736367
-0.000964872
-0.00118587
-0.00140397
-0.00162743
-0.00186938
-0.00212834
-0.00239494
-0.00267166
-0.00295761
-0.003237
-0.00348899
-0.00368747
-0.00379134
-0.00373502
0.000179561
0.000110972
-5.96279e-05
-0.000289522
-0.000538791
-0.000789522
-0.00102919
-0.00126081
-0.00148982
-0.00172374
-0.00197374
-0.00224199
-0.00252029
-0.00280432
-0.00309467
-0.00338049
-0.00363835
-0.00383984
-0.00394385
-0.00388679
0.000155844
8.45467e-05
-8.96621e-05
-0.00032473
-0.000581088
-0.000841307
-0.00109201
-0.00133435
-0.00157382
-0.00181857
-0.00207718
-0.00235196
-0.0026394
-0.00293248
-0.00322685
-0.00351602
-0.0037786
-0.00398379
-0.0040889
-0.00403079
0.000123771
5.08367e-05
-0.000124504
-0.000362043
-0.000623191
-0.000890956
-0.00115184
-0.00140514
-0.00165465
-0.00190888
-0.00217668
-0.00245794
-0.00275045
-0.00305099
-0.00335111
-0.00364225
-0.00390705
-0.00411517
-0.00422284
-0.00416538
8.31683e-05
9.58759e-06
-0.000164429
-0.000401392
-0.00066481
-0.000938345
-0.00120763
-0.00147099
-0.00173087
-0.00199268
-0.00226778
-0.00255716
-0.002853
-0.00315635
-0.00346159
-0.00375566
-0.00402183
-0.00423131
-0.00434078
-0.00428502
3.41211e-05
-3.91714e-05
-0.000209646
-0.00044297
-0.000705607
-0.000982976
-0.00125924
-0.00153032
-0.00180051
-0.00207007
-0.00234819
-0.00264456
-0.00294545
-0.00324806
-0.00355453
-0.00385101
-0.0041189
-0.00432892
-0.00443883
-0.00438465
-2.23168e-05
-9.48528e-05
-0.000260433
-0.000487593
-0.0007457
-0.0010236
-0.00130582
-0.00158277
-0.00186031
-0.00214023
-0.0024202
-0.00271758
-0.00302429
-0.00332592
-0.00362801
-0.00392275
-0.00419033
-0.00439955
-0.00450793
-0.00445359
-8.42436e-05
-0.000156079
-0.000316281
-0.000536387
-0.000788355
-0.00106169
-0.00134554
-0.00162741
-0.0019079
-0.00219696
-0.00248311
-0.00277647
-0.0030852
-0.00338759
-0.0036826
-0.00396856
-0.00422942
-0.00443426
-0.00453728
-0.00447782
-0.000148121
-0.000219436
-0.000375304
-0.000589764
-0.000837078
-0.00110672
-0.00138844
-0.00167116
-0.00194761
-0.00223457
-0.00252651
-0.00281538
-0.00311896
-0.00342422
-0.003717
-0.00399625
-0.00424944
-0.00444997
-0.00455111
-0.00449091
-0.000208797
-0.000278928
-0.000430982
-0.00063964
-0.000882589
-0.00115137
-0.00143357
-0.00172081
-0.00199904
-0.00227445
-0.00255392
-0.00282367
-0.0030916
-0.00336305
-0.00362563
-0.00387437
-0.00409994
-0.00428107
-0.00437647
-0.00432516
-0.000269889
-0.000344965
-0.000498767
-0.000707751
-0.00095224
-0.00122646
-0.00151664
-0.0018154
-0.0021119
-0.00240056
-0.00268614
-0.00295742
-0.00320149
-0.00341795
-0.00359714
-0.00372678
-0.00379679
-0.00379584
-0.00370838
-0.00351359
0.00314337
0.00338312
0.0032968
0.00316348
0.00302416
0.00285828
0.00264584
0.00237201
0.0020383
0.00166892
0.0012922
0.000928415
0.000576333
0.000225968
-0.000133847
-0.000509195
-0.000902902
-0.00132034
-0.0017772
-0.00229133
-0.00286607
-0.00351058
-0.00422228
-0.00498615
-0.00576207
-0.00648863
-0.0070883
-0.00748181
-0.00762456
-0.00752176
-0.00725453
-0.00692158
-0.00659298
-0.00629848
-0.00605416
-0.00587306
-0.00575213
-0.00568599
-0.00566097
-0.00566796
-0.00569644
-0.00574299
-0.00580732
-0.00587764
-0.00595628
-0.00603715
-0.0061188
-0.00620251
-0.00628021
-0.00635744
-0.00643355
-0.006516
-0.00660104
-0.00667486
-0.00675665
-0.00684443
-0.0069202
-0.00699591
-0.00707426
-0.00715875
-0.00724843
-0.00732464
-0.00740323
-0.00749094
-0.00756909
-0.00764946
-0.00773201
-0.00781416
-0.00790002
-0.00797076
-0.00804516
-0.00813329
-0.00820306
-0.00828222
-0.00837506
-0.00842869
-0.00848344
-0.00857981
-0.00866153
-0.00870886
-0.00876544
-0.00884357
-0.00891631
-0.00896972
-0.00902394
-0.00909216
-0.00915433
-0.00920542
-0.00926451
-0.00932611
-0.00937996
-0.00943399
-0.00949255
-0.0095489
-0.00960215
-0.00965638
-0.00971039
-0.00976349
-0.00980954
-0.00985202
0.0025631
0.00302029
0.00319006
0.00314361
0.00300427
0.00282526
0.00260945
0.00233921
0.00200991
0.00164321
0.00126747
0.000904193
0.000552927
0.000203425
-0.000155572
-0.000529947
-0.000922785
-0.00133865
-0.00179296
-0.00230399
-0.00287447
-0.0035133
-0.00421728
-0.00497
-0.00573313
-0.00644834
-0.0070428
-0.007441
-0.00759301
-0.0074989
-0.00723802
-0.00690915
-0.00658262
-0.00628993
-0.00604706
-0.00586704
-0.00574665
-0.00568106
-0.00565636
-0.00566368
-0.00569248
-0.00573919
-0.00580383
-0.00587429
-0.00595315
-0.00603419
-0.00611593
-0.00619994
-0.00627779
-0.00635514
-0.00643144
-0.00651407
-0.00659927
-0.00667312
-0.00675504
-0.006843
-0.00691884
-0.00699464
-0.00707306
-0.00715764
-0.00724746
-0.00732365
-0.00740229
-0.00749016
-0.0075683
-0.00764869
-0.00773132
-0.0078135
-0.00789948
-0.00797021
-0.0080446
-0.00813285
-0.00820261
-0.00828179
-0.00837476
-0.00842833
-0.00848304
-0.00857955
-0.00866133
-0.0087086
-0.00876518
-0.00884338
-0.00891616
-0.00896955
-0.00902377
-0.00909203
-0.00915423
-0.00920531
-0.00926441
-0.00932604
-0.00937989
-0.00943392
-0.0094925
-0.00954886
-0.00960211
-0.00965634
-0.00971036
-0.00976347
-0.00980953
-0.00985201
0.00225814
0.00280965
0.00313465
0.00317427
0.00303735
0.00283266
0.00259702
0.00231861
0.00198736
0.00161974
0.00124233
0.000876897
0.000524397
0.00017435
-0.000184965
-0.000558966
-0.000951035
-0.00136567
-0.00181705
-0.00232333
-0.00288723
-0.00351632
-0.00420581
-0.00493645
-0.00567184
-0.0063592
-0.00693422
-0.00732819
-0.00749444
-0.00742727
-0.00719285
-0.00688253
-0.00656689
-0.00628054
-0.00604307
-0.0058671
-0.00574884
-0.00568371
-0.00565881
-0.00566569
-0.00569399
-0.00574033
-0.00580448
-0.00587451
-0.00595297
-0.00603356
-0.00611499
-0.00619863
-0.00627632
-0.00635375
-0.00642994
-0.00651251
-0.00659777
-0.0066715
-0.00675333
-0.00684127
-0.00691713
-0.00699309
-0.00707161
-0.00715616
-0.00724602
-0.00732226
-0.00740094
-0.00748889
-0.0075671
-0.00764758
-0.0077302
-0.00781238
-0.00789846
-0.00796927
-0.00804374
-0.00813211
-0.00820181
-0.008281
-0.00837416
-0.00842775
-0.00848244
-0.00857905
-0.00866088
-0.00870817
-0.0087648
-0.00884305
-0.00891586
-0.00896927
-0.00902352
-0.00909183
-0.00915405
-0.00920513
-0.00926427
-0.00932593
-0.00937978
-0.00943382
-0.00949242
-0.00954879
-0.00960205
-0.0096563
-0.00971033
-0.00976346
-0.0098096
-0.00985208
0.0019978
0.002578
0.0029971
0.00312692
0.00302638
0.00281869
0.00256893
0.00228107
0.00194653
0.00157874
0.00120167
0.00083615
0.000483969
0.000134488
-0.000224329
-0.000597285
-0.000988193
-0.00140106
-0.00184815
-0.00234778
-0.00290276
-0.00351818
-0.00418763
-0.00489213
-0.00559599
-0.00625213
-0.00680458
-0.00719318
-0.007375
-0.0073384
-0.00713579
-0.00684874
-0.00654723
-0.00626948
-0.00603751
-0.00586528
-0.00574876
-0.00568376
-0.00565863
-0.00566487
-0.00569281
-0.00573898
-0.00580274
-0.00587246
-0.00595055
-0.00603087
-0.00611187
-0.00619501
-0.00627285
-0.00635055
-0.00642667
-0.0065094
-0.00659483
-0.00666852
-0.00675034
-0.00683815
-0.00691401
-0.00699047
-0.00706929
-0.00715368
-0.00724357
-0.00732002
-0.00739873
-0.00748669
-0.0075651
-0.0076458
-0.00772836
-0.00781034
-0.00789651
-0.0079676
-0.00804223
-0.00813061
-0.00820025
-0.0082794
-0.00837271
-0.00842653
-0.00848127
-0.0085778
-0.00865965
-0.00870713
-0.00876391
-0.00884215
-0.00891497
-0.00896848
-0.00902282
-0.00909119
-0.00915346
-0.0092046
-0.00926379
-0.00932549
-0.00937939
-0.00943349
-0.00949212
-0.00954853
-0.00960183
-0.00965612
-0.00971019
-0.00976335
-0.00980968
-0.00985222
0.00175375
0.00233846
0.002822
0.00304096
0.00299955
0.00280648
0.00255065
0.00225373
0.00191261
0.00154066
0.00116163
0.000795553
0.000443577
9.43953e-05
-0.000263951
-0.000635705
-0.00102548
-0.00143621
-0.00187815
-0.00237009
-0.00291475
-0.0035142
-0.00416089
-0.00483686
-0.00550873
-0.00613435
-0.00666507
-0.00704836
-0.00724451
-0.0072378
-0.00706901
-0.00680866
-0.00652429
-0.00625676
-0.00603046
-0.00586155
-0.00574671
-0.00568223
-0.00565722
-0.00566326
-0.00569113
-0.00573735
-0.00580083
-0.00587022
-0.00594801
-0.00602793
-0.00610842
-0.00619101
-0.00626886
-0.00634687
-0.00642292
-0.00650577
-0.00659139
-0.00666491
-0.00674665
-0.00683418
-0.00690995
-0.00698707
-0.00706624
-0.00715033
-0.00724016
-0.00731691
-0.00739568
-0.00748348
-0.00756215
-0.00764328
-0.00772562
-0.00780717
-0.00789354
-0.00796506
-0.00803979
-0.00812822
-0.00819785
-0.00827677
-0.00837018
-0.00842456
-0.00847944
-0.00857558
-0.00865743
-0.00870539
-0.0087624
-0.00884052
-0.00891334
-0.00896708
-0.00902158
-0.00908998
-0.00915234
-0.00920363
-0.00926289
-0.00932465
-0.00937865
-0.00943284
-0.00949151
-0.00954799
-0.00960136
-0.00965572
-0.00970987
-0.00976307
-0.0098097
-0.00985236
0.0015192
0.00210165
0.00263377
0.0029314
0.00295758
0.00279411
0.0025408
0.00223599
0.0018853
0.00150468
0.00111992
0.000751676
0.000399732
5.11271e-05
-0.000306367
-0.000676315
-0.00106399
-0.00147177
-0.00190775
-0.00239077
-0.00292359
-0.0035058
-0.00412888
-0.00477621
-0.00541703
-0.00601352
-0.0065236
-0.00690122
-0.00710991
-0.00713128
-0.00699623
-0.00676449
-0.00649944
-0.0062435
-0.00602328
-0.00585741
-0.00574415
-0.00568017
-0.00565539
-0.00566142
-0.00568931
-0.00573569
-0.00579887
-0.00586801
-0.00594548
-0.00602478
-0.00610474
-0.0061867
-0.00626444
-0.00634282
-0.00641874
-0.00650169
-0.00658759
-0.00666083
-0.0067423
-0.0068296
-0.00690531
-0.00698308
-0.00706267
-0.00714643
-0.00723613
-0.00731323
-0.00739204
-0.00747961
-0.00755862
-0.00764023
-0.00772227
-0.00780328
-0.00788986
-0.00796191
-0.00803673
-0.00812519
-0.00819483
-0.00827336
-0.00836686
-0.00842204
-0.00847704
-0.00857257
-0.00865444
-0.00870307
-0.00876034
-0.00883824
-0.00891104
-0.00896511
-0.00901981
-0.00908822
-0.00915071
-0.00920222
-0.00926155
-0.00932337
-0.00937752
-0.00943185
-0.00949058
-0.00954714
-0.00960061
-0.00965507
-0.00970934
-0.00976261
-0.0098096
-0.00985244
0.00128768
0.00186966
0.0024388
0.00280261
0.00289735
0.0027733
0.00252939
0.00222007
0.00186063
0.00146979
0.0010762
0.00070356
0.000351382
4.15647e-06
-0.000352148
-0.000719874
-0.00110412
-0.00150824
-0.00193785
-0.00241062
-0.00293026
-0.00349472
-0.00409384
-0.00471243
-0.00532292
-0.00589165
-0.00638205
-0.00675332
-0.00697205
-0.0070189
-0.00691691
-0.00671522
-0.00647167
-0.00622899
-0.00601565
-0.00585288
-0.00574102
-0.0056774
-0.00565286
-0.00565892
-0.00568693
-0.00573363
-0.00579659
-0.00586547
-0.00594264
-0.00602126
-0.00610062
-0.00618196
-0.00625953
-0.00633834
-0.00641411
-0.00649707
-0.00658344
-0.00665634
-0.00673733
-0.00682451
-0.00690026
-0.00697864
-0.00705869
-0.00714212
-0.00723169
-0.00730914
-0.007388
-0.00747538
-0.0075547
-0.0076368
-0.00771858
-0.00779895
-0.00788569
-0.00795838
-0.00803334
-0.00812178
-0.00819138
-0.00826948
-0.0083631
-0.00841919
-0.00847428
-0.00856907
-0.008651
-0.00870039
-0.00875792
-0.00883555
-0.00890833
-0.0089628
-0.00901771
-0.00908611
-0.00914875
-0.00920051
-0.00925991
-0.00932181
-0.00937613
-0.00943063
-0.0094894
-0.00954607
-0.00959967
-0.00965424
-0.00970866
-0.009762
-0.00980939
-0.00985246
0.00105845
0.00164251
0.00224076
0.00265873
0.00281797
0.00273996
0.00251203
0.00220273
0.00183772
0.00143765
0.00103331
0.000652821
0.000298739
-4.67081e-05
-0.000401328
-0.000766678
-0.0011465
-0.0015459
-0.00196855
-0.00242957
-0.00293458
-0.00348085
-0.00405581
-0.00464567
-0.0052268
-0.00576902
-0.00624005
-0.00660391
-0.00683036
-0.00690024
-0.00683019
-0.0066596
-0.00643969
-0.00621221
-0.00600705
-0.00584787
-0.00573723
-0.00567371
-0.0056493
-0.00565549
-0.00568364
-0.00573085
-0.0057938
-0.00586235
-0.00593935
-0.00601734
-0.00609601
-0.00617672
-0.0062541
-0.00633345
-0.00640913
-0.00649193
-0.00657881
-0.00665149
-0.00673195
-0.00681896
-0.00689481
-0.00697389
-0.00705438
-0.00713744
-0.00722688
-0.00730471
-0.00738368
-0.00747086
-0.00755042
-0.00763305
-0.00771461
-0.00779428
-0.00788116
-0.00795456
-0.00802967
-0.00811804
-0.0081876
-0.00826527
-0.00835902
-0.00841606
-0.00847122
-0.00856525
-0.00864724
-0.00869746
-0.00875526
-0.00883257
-0.00890535
-0.00896024
-0.00901539
-0.00908377
-0.00914656
-0.0091986
-0.00925808
-0.00932005
-0.00937458
-0.00942925
-0.00948808
-0.00954486
-0.00959861
-0.00965329
-0.00970788
-0.00976132
-0.00980909
-0.00985244
0.000831874
0.00141898
0.00204121
0.00250388
0.00272143
0.00269274
0.00248755
0.00218184
0.0018143
0.00140757
0.00099202
0.000600283
0.000241423
-0.000102225
-0.000453802
-0.000816517
-0.00119152
-0.0015845
-0.00199875
-0.00244683
-0.00293596
-0.00346348
-0.00401435
-0.00457594
-0.00512864
-0.00564525
-0.00609715
-0.00645284
-0.00668527
-0.0067759
-0.0067362
-0.0065972
-0.00640285
-0.00619248
-0.00599695
-0.00584203
-0.00573275
-0.00566903
-0.00564455
-0.00565099
-0.00567935
-0.00572723
-0.00579035
-0.00585871
-0.0059356
-0.00601298
-0.00609098
-0.006171
-0.00624818
-0.00632826
-0.00640388
-0.00648632
-0.00657367
-0.00664631
-0.0067263
-0.00681302
-0.00688889
-0.00696879
-0.00704983
-0.00713241
-0.00722166
-0.00729999
-0.00737909
-0.00746599
-0.00754581
-0.007629
-0.00771034
-0.0077893
-0.00787632
-0.00795044
-0.0080257
-0.00811403
-0.00818356
-0.00826075
-0.00835463
-0.00841268
-0.00846793
-0.00856114
-0.00864322
-0.00869429
-0.00875236
-0.00882937
-0.00890213
-0.00895748
-0.00901287
-0.00908123
-0.00914419
-0.00919654
-0.0092561
-0.00931814
-0.00937288
-0.00942775
-0.00948665
-0.00954354
-0.00959745
-0.00965225
-0.00970703
-0.00976057
-0.00980871
-0.00985239
0.000608028
0.00119831
0.00184188
0.0023422
0.00261047
0.00263082
0.00245333
0.00215475
0.00178741
0.00137762
0.000952787
0.00054837
0.000181351
-0.000161688
-0.000508796
-0.00086825
-0.00123863
-0.00162381
-0.00202803
-0.00246256
-0.00293482
-0.00344269
-0.00396977
-0.00450388
-0.00502889
-0.00552059
-0.00595376
-0.00630079
-0.00653753
-0.00664648
-0.00663508
-0.0065274
-0.00636002
-0.00616891
-0.00598495
-0.00583529
-0.00572788
-0.00566389
-0.00563888
-0.00564557
-0.00567414
-0.00572263
-0.00578615
-0.00585451
-0.00593138
-0.00600814
-0.00608555
-0.00616494
-0.00624179
-0.00632269
-0.00639834
-0.0064803
-0.00656813
-0.00664072
-0.00672025
-0.00680679
-0.00688253
-0.0069632
-0.00704502
-0.0071271
-0.00721602
-0.00729491
-0.00737418
-0.00746078
-0.00754086
-0.00762463
-0.00770575
-0.00778396
-0.00787113
-0.00794599
-0.00802141
-0.00810974
-0.00817926
-0.0082559
-0.0083499
-0.00840906
-0.0084644
-0.00855674
-0.0086389
-0.00869089
-0.00874925
-0.00882593
-0.00889868
-0.00895451
-0.00901017
-0.00907851
-0.00914164
-0.00919431
-0.00925397
-0.00931609
-0.00937107
-0.00942613
-0.00948511
-0.00954212
-0.00959621
-0.00965113
-0.00970611
-0.00975978
-0.00980827
-0.00985232
0.000386208
0.000979832
0.00164296
0.00217555
0.00248645
0.00255289
0.002407
0.00212028
0.00175558
0.00134594
0.000915288
0.000498542
0.000120549
-0.000224523
-0.000566576
-0.000921326
-0.00128722
-0.00166424
-0.00205703
-0.00247685
-0.00293104
-0.00341846
-0.00392238
-0.00442988
-0.0049276
-0.00539504
-0.00580998
-0.00614804
-0.00638756
-0.00651247
-0.00652737
-0.00645026
-0.00631086
-0.00614109
-0.00597083
-0.00582753
-0.00572247
-0.00565833
-0.00563228
-0.00563905
-0.00566781
-0.00571693
-0.0057811
-0.0058496
-0.00592668
-0.0060028
-0.00607964
-0.00615866
-0.00623488
-0.00631652
-0.00639249
-0.00647395
-0.00656229
-0.00663467
-0.00671358
-0.00680026
-0.00687588
-0.00695705
-0.00703979
-0.00712155
-0.00720999
-0.00728932
-0.0073689
-0.00745528
-0.00753552
-0.0076199
-0.00770087
-0.00777823
-0.00786551
-0.00794123
-0.00801683
-0.00810513
-0.00817464
-0.00825068
-0.00834483
-0.00840519
-0.00846061
-0.00855201
-0.00863428
-0.00868725
-0.00874592
-0.00882224
-0.00889498
-0.00895132
-0.00900728
-0.00907558
-0.00913891
-0.00919192
-0.00925168
-0.00931388
-0.00936911
-0.00942438
-0.00948345
-0.00954059
-0.00959487
-0.00964993
-0.00970511
-0.00975892
-0.00980775
-0.00985219
0.000164916
0.000762949
0.00144418
0.00200533
0.00235225
0.0024602
0.00234833
0.00207799
0.00171798
0.0013104
0.00087771
0.000451154
6.09076e-05
-0.000289604
-0.000627841
-0.000976073
-0.00133664
-0.00170595
-0.00208651
-0.00248983
-0.00292465
-0.00339128
-0.00387252
-0.00435382
-0.00482452
-0.00526876
-0.00566626
-0.00599514
-0.00623619
-0.00637489
-0.0064139
-0.00636608
-0.00625503
-0.00610821
-0.00595349
-0.00581795
-0.00571596
-0.00565218
-0.00562498
-0.00563144
-0.0056604
-0.00571022
-0.00577511
-0.00584375
-0.00592123
-0.00599687
-0.00607312
-0.00615192
-0.00622747
-0.00630971
-0.00638626
-0.00646727
-0.0065561
-0.00662822
-0.00670618
-0.00679313
-0.00686898
-0.00695041
-0.00703398
-0.00711569
-0.00720363
-0.0072832
-0.00736317
-0.00744943
-0.00752977
-0.0076148
-0.00769572
-0.00777209
-0.00785939
-0.00793616
-0.00801201
-0.00810015
-0.00816962
-0.00824514
-0.00833945
-0.00840102
-0.00845652
-0.00854694
-0.00862935
-0.00868335
-0.00874232
-0.00881828
-0.00889103
-0.00894791
-0.00900417
-0.00907243
-0.00913597
-0.00918936
-0.00924923
-0.0093115
-0.00936701
-0.00942251
-0.00948168
-0.00953895
-0.00959343
-0.00964864
-0.00970403
-0.00975801
-0.00980716
-0.00985202
-5.55141e-05
0.000548071
0.00124586
0.0018326
0.00221055
0.00235434
0.00227662
0.0020267
0.00167396
0.00126947
0.000837698
0.000405075
3.36167e-06
-0.000355451
-0.000692477
-0.00103284
-0.00138597
-0.00174797
-0.00211672
-0.00250212
-0.00291588
-0.00336117
-0.00382007
-0.00427581
-0.00472028
-0.00514259
-0.00552345
-0.00584266
-0.00608407
-0.00623456
-0.00629529
-0.00627508
-0.00619218
-0.00606929
-0.00593201
-0.00580618
-0.00570832
-0.00564549
-0.00561724
-0.00562303
-0.00565192
-0.00570229
-0.00576802
-0.00583685
-0.0059148
-0.00599037
-0.006066
-0.00614458
-0.00621966
-0.00630239
-0.00637953
-0.00646007
-0.00654942
-0.00662147
-0.00669816
-0.00678519
-0.00686166
-0.00694348
-0.00702766
-0.00710932
-0.00719689
-0.00727664
-0.00735692
-0.00744317
-0.00752368
-0.00760932
-0.0076902
-0.00776548
-0.00785274
-0.00793071
-0.00800691
-0.00809481
-0.00816421
-0.00823922
-0.00833373
-0.00839655
-0.00845211
-0.00854153
-0.0086241
-0.00867917
-0.00873847
-0.00881404
-0.0088868
-0.00894424
-0.00900083
-0.00906907
-0.00913283
-0.00918662
-0.0092466
-0.00930896
-0.00936476
-0.00942051
-0.00947977
-0.00953719
-0.00959189
-0.00964725
-0.00970286
-0.00975702
-0.00980648
-0.00985178
-0.000273808
0.000335169
0.00104762
0.00165702
0.00206282
0.00223764
0.00219211
0.00196555
0.00162279
0.00122234
0.000793349
0.000358548
-5.19638e-05
-0.000420171
-0.000758766
-0.00109167
-0.00143507
-0.00178889
-0.00214682
-0.00251413
-0.00290517
-0.00332799
-0.0037652
-0.00419676
-0.0046157
-0.00501659
-0.00538137
-0.00569073
-0.00593151
-0.00609223
-0.00617245
-0.00617778
-0.0061223
-0.00602389
-0.00590575
-0.00579142
-0.00569893
-0.00563771
-0.00560858
-0.00561398
-0.00564247
-0.00569299
-0.00575993
-0.00582893
-0.0059073
-0.00598302
-0.00605803
-0.00613654
-0.00621127
-0.00629457
-0.00637238
-0.00645223
-0.00654219
-0.0066145
-0.00668971
-0.00677641
-0.0068536
-0.00693622
-0.00702104
-0.00710237
-0.0071896
-0.0072697
-0.00735021
-0.00743645
-0.00751716
-0.00760337
-0.00768425
-0.00775851
-0.00784568
-0.00792482
-0.00800145
-0.00808917
-0.00815843
-0.00823284
-0.00832761
-0.00839179
-0.00844738
-0.00853573
-0.00861851
-0.00867472
-0.00873433
-0.0088095
-0.00888228
-0.00894033
-0.00899727
-0.00906547
-0.00912946
-0.00918368
-0.00924378
-0.00930623
-0.00936234
-0.00941836
-0.00947774
-0.00953531
-0.00959024
-0.00964576
-0.0097016
-0.00975595
-0.0098057
-0.00985147
-0.000489894
0.000123451
0.000848898
0.00147852
0.00191026
0.00211284
0.00209585
0.00189343
0.00156358
0.00116853
0.000743617
0.000310053
-0.000105827
-0.000482478
-0.000824767
-0.0011523
-0.00148464
-0.00182801
-0.00217594
-0.00252685
-0.00289426
-0.00329269
-0.00370811
-0.00411715
-0.00451107
-0.00489034
-0.00523986
-0.00553997
-0.00577929
-0.00594862
-0.00604639
-0.0060748
-0.00604534
-0.00597161
-0.0058737
-0.00577262
-0.00568708
-0.00562861
-0.00559905
-0.00560442
-0.00563247
-0.0056824
-0.00575068
-0.00582004
-0.00589851
-0.00597436
-0.00604893
-0.00612787
-0.00620229
-0.00628613
-0.00636497
-0.00644382
-0.00653415
-0.00660713
-0.00668082
-0.00676693
-0.00684477
-0.00692836
-0.00701413
-0.00709502
-0.00718164
-0.00726219
-0.00734312
-0.00742927
-0.00751005
-0.00759692
-0.00767803
-0.00775124
-0.0078381
-0.00791837
-0.00799556
-0.00808325
-0.0081523
-0.00822596
-0.00832106
-0.00838677
-0.00844233
-0.0085295
-0.00861255
-0.00866998
-0.0087299
-0.00880464
-0.00887746
-0.00893615
-0.00899345
-0.00906161
-0.00912586
-0.00918053
-0.00924076
-0.00930331
-0.00935975
-0.00941605
-0.00947555
-0.00953328
-0.00958846
-0.00964417
-0.00970023
-0.0097548
-0.00980484
-0.00985107
-0.000703737
-8.73612e-05
0.00064953
0.00129721
0.00175297
0.00198103
0.00198888
0.00180966
0.00149556
0.00110794
0.00068826
0.00025831
-0.000159911
-0.000542531
-0.000889015
-0.00121354
-0.0015353
-0.00186605
-0.00220326
-0.0025398
-0.00288381
-0.00325574
-0.00364818
-0.00403649
-0.00440702
-0.00476454
-0.00509959
-0.00539136
-0.00562848
-0.00580436
-0.00591788
-0.00596721
-0.00596183
-0.00591245
-0.00583535
-0.00574919
-0.00567211
-0.0056179
-0.00558857
-0.00559388
-0.0056222
-0.00567081
-0.00573997
-0.00581016
-0.00588832
-0.00596442
-0.00603873
-0.00611833
-0.00619275
-0.00627679
-0.00635724
-0.00643518
-0.00652512
-0.0065991
-0.00667155
-0.00675695
-0.0068354
-0.00691955
-0.00700649
-0.00708751
-0.00717322
-0.00725393
-0.00733564
-0.0074218
-0.00750232
-0.00758993
-0.00767153
-0.00774347
-0.00782983
-0.00791144
-0.00798932
-0.00807694
-0.00814581
-0.00821861
-0.00831399
-0.00838139
-0.00843697
-0.00852284
-0.00860616
-0.00866493
-0.00872516
-0.00879944
-0.00887229
-0.00893169
-0.00898936
-0.00905749
-0.009122
-0.00917717
-0.00923753
-0.00930018
-0.00935698
-0.00941358
-0.00947321
-0.00953112
-0.00958656
-0.00964246
-0.00969876
-0.00975356
-0.00980387
-0.00985057
-0.000915499
-0.000296703
0.000450294
0.00111416
0.00159164
0.0018437
0.00187399
0.00171601
0.00141885
0.00104074
0.000627115
0.000202152
-0.000215654
-0.000601395
-0.000950919
-0.00127382
-0.00158668
-0.00190366
-0.00222761
-0.00255095
-0.00287398
-0.00321861
-0.00358633
-0.0039551
-0.00430475
-0.00464058
-0.0049608
-0.00524496
-0.00547957
-0.00565997
-0.00578739
-0.00585597
-0.00587243
-0.00584615
-0.00579025
-0.00572037
-0.00565301
-0.00560471
-0.00557688
-0.00558213
-0.00561147
-0.00565872
-0.00572787