/*--------------------------------*- C++ -*----------------------------------*\
  =========                 |
  \\      /  F ield         | OpenFOAM: The Open Source CFD Toolbox
   \\    /   O peration     | Website:  https://openfoam.org
    \\  /    A nd           | Version:  10
     \\/     M anipulation  |
\*---------------------------------------------------------------------------*/
FoamFile
{
    format      ascii;
    class       surfaceScalarField;
    location    "0.9";
    object      phi;
}
// * * * * * * * * * * * * * * * * * * * * * * * * * * * * * * * * * * * * * //

dimensions      [0 3 -1 0 0 0 0];

internalField   nonuniform List<scalar> 
9440
(
3.88122e-06
-8.40038e-09
3.87835e-06
-8.85736e-09
3.87971e-06
2.70295e-09
3.87763e-06
-1.06296e-08
3.87949e-06
1.33262e-08
3.87827e-06
-2.76781e-08
3.87859e-06
-5.31792e-09
3.87854e-06
-2.64182e-08
3.87851e-06
-2.4449e-09
3.87999e-06
-1.54091e-08
3.88105e-06
7.04778e-09
3.88286e-06
-9.03442e-09
3.88382e-06
6.66712e-09
3.88487e-06
-1.29668e-08
3.88517e-06
1.28067e-10
3.88567e-06
-1.49811e-08
3.88461e-06
7.95933e-10
3.87988e-06
-7.76034e-09
3.8658e-06
1.9149e-08
3.35581e-08
3.84349e-06
4.18314e-06
-5.67656e-09
4.18727e-06
-1.29872e-08
4.18407e-06
5.90045e-09
4.18673e-06
-1.32951e-08
4.18532e-06
1.47381e-08
4.18655e-06
-2.89099e-08
4.18581e-06
-4.57054e-09
4.18541e-06
-2.60247e-08
4.18606e-06
-3.09621e-09
4.18471e-06
-1.40582e-08
4.18713e-06
4.63387e-09
4.18603e-06
-7.9337e-09
4.18891e-06
3.78597e-09
4.18845e-06
-1.25078e-08
4.1905e-06
-1.92815e-09
4.18727e-06
-1.17476e-08
4.18593e-06
2.13518e-09
4.17431e-06
3.85957e-09
4.16685e-06
2.66149e-08
4.0452e-08
4.15995e-06
4.51745e-06
-3.06006e-09
4.52045e-06
-1.59964e-08
4.51873e-06
7.62802e-09
4.51961e-06
-1.41792e-08
4.52059e-06
1.37586e-08
4.51908e-06
-2.74031e-08
4.52177e-06
-7.25894e-09
4.51787e-06
-2.21266e-08
4.52216e-06
-7.38191e-09
4.5177e-06
-9.60232e-09
4.5233e-06
-9.61203e-10
4.51917e-06
-3.80499e-09
4.52532e-06
-2.35912e-09
4.52171e-06
-8.90427e-09
4.52603e-06
-6.24194e-09
4.52054e-06
-6.25957e-09
4.52045e-06
2.22424e-09
4.50746e-06
1.68448e-08
4.50151e-06
3.25654e-08
4.6341e-08
4.49562e-06
4.8801e-06
-2.21482e-09
4.88056e-06
-1.64551e-08
4.88175e-06
6.44038e-09
4.88012e-06
-1.25473e-08
4.88369e-06
1.01853e-08
4.87977e-06
-2.34811e-08
4.88443e-06
-1.19189e-08
4.87933e-06
-1.70327e-08
4.884e-06
-1.20432e-08
4.88074e-06
-6.34672e-09
4.88524e-06
-5.46142e-09
4.88555e-06
-4.11266e-09
4.88817e-06
-4.98491e-09
4.88795e-06
-8.67553e-09
4.88801e-06
-6.30281e-09
4.88356e-06
-1.81476e-09
4.87428e-06
1.15097e-08
4.86544e-06
2.56825e-08
4.86107e-06
3.69375e-08
4.95615e-08
4.85785e-06
5.27046e-06
-2.03155e-09
5.26965e-06
-1.56413e-08
5.2726e-06
3.4916e-09
5.26957e-06
-9.51613e-09
5.27458e-06
5.17384e-09
5.26966e-06
-1.85616e-08
5.27457e-06
-1.68304e-08
5.27015e-06
-1.26122e-08
5.27393e-06
-1.58269e-08
5.27413e-06
-6.54608e-09
5.27644e-06
-7.76787e-09
5.278e-06
-5.6682e-09
5.27963e-06
-6.61953e-09
5.2789e-06
-7.94695e-09
5.27625e-06
-3.64655e-09
5.26694e-06
7.49372e-09
5.25836e-06
2.00875e-08
5.25332e-06
3.07215e-08
5.24989e-06
4.03694e-08
5.14786e-08
5.24797e-06
5.6915e-06
-2.07267e-09
5.68971e-06
-1.3848e-08
5.69396e-06
-7.58662e-10
5.69039e-06
-5.94678e-09
5.69532e-06
2.44952e-10
5.69155e-06
-1.47966e-08
5.69413e-06
-1.94129e-08
5.69401e-06
-1.24883e-08
5.69452e-06
-1.63388e-08
5.69723e-06
-9.24882e-09
5.69869e-06
-9.23734e-09
5.70035e-06
-7.32436e-09
5.70067e-06
-6.9427e-09
5.69798e-06
-5.25483e-09
5.68989e-06
4.44473e-09
5.68083e-06
1.65542e-08
5.67616e-06
2.47565e-08
5.67254e-06
3.43441e-08
5.66986e-06
4.30495e-08
5.27836e-08
5.66855e-06
6.14603e-06
-2.23293e-09
6.14354e-06
-1.13557e-08
6.14843e-06
-5.64768e-09
6.1453e-06
-2.82113e-09
6.14877e-06
-3.2233e-09
6.14763e-06
-1.36572e-08
6.14716e-06
-1.89465e-08
6.14987e-06
-1.51969e-08
6.15062e-06
-1.70868e-08
6.15256e-06
-1.11917e-08
6.15433e-06
-1.10075e-08
6.15538e-06
-8.36843e-09
6.15307e-06
-4.63315e-09
6.14601e-06
1.80016e-09
6.13691e-06
1.35507e-08
6.13194e-06
2.15242e-08
6.1283e-06
2.83961e-08
6.12563e-06
3.70072e-08
6.12334e-06
4.53468e-08
5.37317e-08
6.12239e-06
6.63677e-06
-2.44051e-09
6.63404e-06
-8.62804e-09
6.6383e-06
-9.90633e-09
6.63726e-06
-1.78513e-09
6.63798e-06
-3.93663e-09
6.64028e-06
-1.59587e-08
6.63871e-06
-1.7376e-08
6.64078e-06
-1.72698e-08
6.64318e-06
-1.94804e-08
6.64483e-06
-1.28445e-08
6.64534e-06
-1.15171e-08
6.6442e-06
-7.23592e-09
6.63744e-06
2.13485e-09
6.62874e-06
1.04961e-08
6.62403e-06
1.82621e-08
6.62031e-06
2.52414e-08
6.61731e-06
3.13943e-08
6.61495e-06
3.93752e-08
6.61309e-06
4.72065e-08
5.45082e-08
6.61231e-06
7.16661e-06
-2.62273e-09
7.16422e-06
-6.23428e-09
7.16613e-06
-1.18179e-08
7.16895e-06
-4.60477e-09
7.1679e-06
-2.88485e-09
7.16997e-06
-1.80306e-08
7.1715e-06
-1.89071e-08
7.17157e-06
-1.73349e-08
7.17331e-06
-2.12267e-08
7.1754e-06
-1.49346e-08
7.17397e-06
-1.00892e-08
7.16891e-06
-2.16635e-09
7.16104e-06
9.99717e-09
7.15507e-06
1.64683e-08
7.15139e-06
2.19387e-08
7.14842e-06
2.82188e-08
7.14561e-06
3.42037e-08
7.14345e-06
4.15272e-08
7.14202e-06
4.86382e-08
5.51883e-08
7.14134e-06
7.73872e-06
-2.73554e-09
7.73711e-06
-4.62955e-09
7.73652e-06
-1.12266e-08
7.74163e-06
-9.70987e-09
7.74218e-06
-3.43554e-09
7.74165e-06
-1.74998e-08
7.74486e-06
-2.21195e-08
7.74559e-06
-1.8063e-08
7.74547e-06
-2.11088e-08
7.74559e-06
-1.50584e-08
7.74091e-06
-5.40932e-09
7.73362e-06
5.12974e-09
7.72826e-06
1.53539e-08
7.72457e-06
2.01563e-08
7.72173e-06
2.47754e-08
7.71898e-06
3.09762e-08
7.71628e-06
3.69015e-08
7.71439e-06
4.34138e-08
7.71324e-06
4.97961e-08
5.57231e-08
7.7127e-06
8.35653e-06
-2.80147e-09
8.35599e-06
-4.0916e-09
8.35406e-06
-9.30266e-09
8.35864e-06
-1.42809e-08
8.36227e-06
-7.06874e-09
8.36126e-06
-1.64952e-08
8.36231e-06
-2.31677e-08
8.36432e-06
-2.00749e-08
8.36242e-06
-1.9205e-08
8.35848e-06
-1.11195e-08
8.35278e-06
2.88456e-10
8.34742e-06
1.04978e-08
8.3437e-06
1.90699e-08
8.34042e-06
2.34364e-08
8.33778e-06
2.74172e-08
8.33522e-06
3.35324e-08
8.33281e-06
3.9317e-08
8.3311e-06
4.51156e-08
8.33011e-06
5.07886e-08
5.60712e-08
8.32976e-06
9.02378e-06
-2.93101e-09
9.02403e-06
-4.34168e-09
9.02262e-06
-7.89233e-09
9.0235e-06
-1.51666e-08
9.03004e-06
-1.36059e-08
9.03105e-06
-1.75068e-08
9.02955e-06
-2.16684e-08
9.02989e-06
-2.04086e-08
9.02769e-06
-1.70119e-08
9.02095e-06
-4.38177e-09
9.01461e-06
6.6313e-09
9.01137e-06
1.37432e-08
9.00894e-06
2.14996e-08
9.00597e-06
2.64054e-08
9.00322e-06
3.01606e-08
9.00089e-06
3.58663e-08
8.99878e-06
4.14255e-08
8.99725e-06
4.6648e-08
8.99639e-06
5.16523e-08
5.62375e-08
8.99622e-06
9.74433e-06
-3.16196e-09
9.74511e-06
-5.11851e-09
9.74513e-06
-7.90701e-09
9.74324e-06
-1.32781e-08
9.74889e-06
-1.92639e-08
9.75283e-06
-2.14406e-08
9.75122e-06
-2.00631e-08
9.74741e-06
-1.6592e-08
9.74359e-06
-1.31925e-08
9.73864e-06
5.6389e-10
9.73295e-06
1.23245e-08
9.72926e-06
1.74308e-08
9.72734e-06
2.34232e-08
9.72482e-06
2.89222e-08
9.72214e-06
3.28423e-08
9.71996e-06
3.80494e-08
9.71817e-06
4.32077e-08
9.71681e-06
4.80076e-08
9.71606e-06
5.24037e-08
5.62629e-08
9.71604e-06
1.05224e-05
-3.51313e-09
1.05226e-05
-5.33603e-09
1.05249e-05
-1.01437e-08
1.05226e-05
-1.10237e-08
1.05242e-05
-2.08724e-08
1.05294e-05
-2.65988e-08
1.05297e-05
-2.03675e-08
1.05231e-05
-1.00115e-08
1.0516e-05
-6.10609e-09
1.05125e-05
4.09427e-09
1.05093e-05
1.55355e-08
1.05058e-05
2.09674e-08
1.05035e-05
2.57119e-08
1.05012e-05
3.11923e-08
1.04987e-05
3.53139e-08
1.04967e-05
4.01108e-08
1.04952e-05
4.47132e-08
1.0494e-05
4.91975e-08
1.04934e-05
5.29979e-08
5.6153e-08
1.04935e-05
1.13626e-05
-3.907e-09
1.13621e-05
-4.83121e-09
1.13653e-05
-1.34068e-08
1.13656e-05
-1.13471e-08
1.13632e-05
-1.84657e-08
1.13651e-05
-2.84509e-08
1.13676e-05
-2.28255e-08
1.13632e-05
-5.68488e-09
1.13545e-05
2.57535e-09
1.13494e-05
9.21144e-09
1.1347e-05
1.79182e-08
1.13445e-05
2.35317e-08
1.1342e-05
2.81471e-08
1.13398e-05
3.34259e-08
1.13376e-05
3.75248e-08
1.13357e-05
4.19818e-08
1.13344e-05
4.6061e-08
1.13335e-05
5.01263e-08
1.1333e-05
5.3421e-08
5.59298e-08
1.13333e-05
1.22696e-05
-4.13324e-09
1.22693e-05
-4.60091e-09
1.22712e-05
-1.53098e-08
1.22749e-05
-1.49694e-08
1.22714e-05
-1.49911e-08
1.22675e-05
-2.45544e-08
1.22671e-05
-2.24367e-08
1.22671e-05
-5.66714e-09
1.22618e-05
7.86848e-09
1.22557e-05
1.52911e-08
1.22522e-05
2.14619e-08
1.22499e-05
2.58178e-08
1.22478e-05
3.02273e-08
1.22457e-05
3.55049e-08
1.22437e-05
3.95547e-08
1.2242e-05
4.36781e-08
1.22408e-05
4.72569e-08
1.22401e-05
5.08032e-08
1.22399e-05
5.36539e-08
5.55818e-08
1.22402e-05
1.32489e-05
-4.12718e-09
1.32502e-05
-5.89899e-09
1.32492e-05
-1.4272e-08
1.32536e-05
-1.93406e-08
1.32524e-05
-1.38112e-08
1.32452e-05
-1.74096e-08
1.32401e-05
-1.73404e-08
1.32392e-05
-4.69578e-09
1.32384e-05
8.59259e-09
1.32348e-05
1.89129e-08
1.3231e-05
2.52681e-08
1.32279e-05
2.89541e-08
1.3226e-05
3.21324e-08
1.32242e-05
3.73096e-08
1.32224e-05
4.134e-08
1.32209e-05
4.51423e-08
1.32199e-05
4.83005e-08
1.32194e-05
5.1237e-08
1.32194e-05
5.36841e-08
5.50967e-08
1.32199e-05
1.43067e-05
-4.07917e-09
1.4309e-05
-8.21976e-09
1.43073e-05
-1.25656e-08
1.43081e-05
-2.01378e-08
1.43098e-05
-1.54884e-08
1.43037e-05
-1.13378e-08
1.42962e-05
-9.84158e-09
1.42923e-05
-8.11538e-10
1.42916e-05
9.35148e-09
1.42908e-05
1.96479e-08
1.42881e-05
2.79673e-08
1.4285e-05
3.20997e-08
1.42825e-05
3.4579e-08
1.42809e-05
3.89166e-08
1.42794e-05
4.28535e-08
1.42782e-05
4.63299e-08
1.42774e-05
4.91516e-08
1.42771e-05
5.148e-08
1.42773e-05
5.35118e-08
5.44691e-08
1.42779e-05
1.5449e-05
-4.12445e-09
1.54507e-05
-9.9214e-09
1.54507e-05
-1.25651e-08
1.54481e-05
-1.74687e-08
1.54484e-05
-1.5859e-08
1.54457e-05
-8.59558e-09
1.54387e-05
-2.85941e-09
1.54332e-05
4.75119e-09
1.54306e-05
1.18668e-08
1.543e-05
2.03127e-08
1.54292e-05
2.87595e-08
1.54267e-05
3.46074e-08
1.54242e-05
3.70564e-08
1.54224e-05
4.0691e-08
1.54211e-05
4.41357e-08
1.54203e-05
4.71975e-08
1.54197e-05
4.9763e-08
1.54196e-05
5.15525e-08
1.542e-05
5.31446e-08
5.37028e-08
1.54207e-05
1.66826e-05
-4.22493e-09
1.66833e-05
-1.0631e-08
1.66843e-05
-1.35773e-08
1.6681e-05
-1.42354e-08
1.6678e-05
-1.28587e-08
1.66759e-05
-6.47217e-09
1.66719e-05
1.14037e-09
1.66669e-05
9.77497e-09
1.66629e-05
1.59029e-08
1.66612e-05
2.19412e-08
1.66607e-05
2.93365e-08
1.66594e-05
3.58285e-08
1.66573e-05
3.91932e-08
1.66556e-05
4.23657e-08
1.66544e-05
4.53605e-08
1.66538e-05
4.78296e-08
1.66534e-05
5.01043e-08
1.66535e-05
5.14398e-08
1.66541e-05
5.2584e-08
5.28075e-08
1.6655e-05
1.80144e-05
-4.22363e-09
1.80144e-05
-1.06443e-08
1.80147e-05
-1.38371e-08
1.80127e-05
-1.22667e-08
1.80083e-05
-8.47884e-09
1.80048e-05
-2.96741e-09
1.8002e-05
3.99151e-09
1.79987e-05
1.30883e-08
1.79949e-05
1.96322e-08
1.79921e-05
2.47301e-08
1.79911e-05
3.03357e-08
1.79903e-05
3.66772e-08
1.7989e-05
4.04791e-08
1.79876e-05
4.37562e-08
1.79866e-05
4.63925e-08
1.79861e-05
4.83072e-08
1.7986e-05
5.0177e-08
1.79863e-05
5.11471e-08
1.79871e-05
5.18226e-08
5.17898e-08
1.79881e-05
1.94525e-05
-4.02399e-09
1.9452e-05
-1.01722e-08
1.94509e-05
-1.27177e-08
1.94492e-05
-1.05824e-08
1.94458e-05
-5.07312e-09
1.94416e-05
1.20853e-09
1.94384e-05
7.23432e-09
1.94361e-05
1.54189e-08
1.94332e-05
2.24713e-08
1.94304e-05
2.75317e-08
1.94287e-05
3.20702e-08
1.94279e-05
3.74405e-08
1.9427e-05
4.14231e-08
1.94262e-05
4.45097e-08
1.94254e-05
4.71758e-08
1.94252e-05
4.85748e-08
1.94253e-05
4.99977e-08
1.94258e-05
5.06789e-08
1.94267e-05
5.08912e-08
5.06225e-08
1.94279e-05
2.10054e-05
-3.64776e-09
2.10045e-05
-9.26177e-09
2.10025e-05
-1.06872e-08
2.10001e-05
-8.2329e-09
2.09977e-05
-2.60369e-09
2.09941e-05
4.78602e-09
2.09905e-05
1.08705e-08
2.09881e-05
1.77534e-08
2.09861e-05
2.44898e-08
2.09837e-05
2.9912e-08
2.09819e-05
3.39304e-08
2.09809e-05
3.84209e-08
2.09802e-05
4.20953e-08
2.09797e-05
4.49677e-08
2.09795e-05
4.74189e-08
2.09795e-05
4.86138e-08
2.09799e-05
4.95747e-08
2.09806e-05
4.99733e-08
2.09817e-05
4.98305e-08
4.92826e-08
2.0983e-05
2.26824e-05
-3.13366e-09
2.2681e-05
-7.85687e-09
2.26786e-05
-8.2928e-09
2.26757e-05
-5.35752e-09
2.2673e-05
9.85611e-11
2.26704e-05
7.39746e-09
2.26672e-05
1.40919e-08
2.26646e-05
2.03072e-08
2.26629e-05
2.62705e-08
2.26611e-05
3.16746e-08
2.26594e-05
3.55838e-08
2.26584e-05
3.94225e-08
2.26579e-05
4.25954e-08
2.26577e-05
4.51893e-08
2.26579e-05
4.72351e-08
2.26582e-05
4.83508e-08
2.26588e-05
4.89105e-08
2.26598e-05
4.90011e-08
2.2661e-05
4.86294e-08
4.77889e-08
2.26625e-05
2.44933e-05
-2.4882e-09
2.44913e-05
-5.89707e-09
2.44888e-05
-5.73795e-09
2.44858e-05
-2.34506e-09
2.44828e-05
3.04148e-09
2.44804e-05
9.79396e-09
2.4478e-05
1.65357e-08
2.44756e-05
2.26933e-08
2.44739e-05
2.80184e-08
2.44725e-05
3.30611e-08
2.44712e-05
3.68316e-08
2.44704e-05
4.02297e-08
2.447e-05
4.29814e-08
2.44701e-05
4.50962e-08
2.44706e-05
4.6796e-08
2.44712e-05
4.76909e-08
2.44721e-05
4.80148e-08
2.44733e-05
4.77876e-08
2.44747e-05
4.72369e-08
4.61656e-08
2.44763e-05
2.64488e-05
-1.71927e-09
2.64466e-05
-3.66646e-09
2.64437e-05
-2.85678e-09
2.64407e-05
6.61485e-10
2.64377e-05
5.98976e-09
2.64353e-05
1.21813e-08
2.64333e-05
1.85568e-08
2.64314e-05
2.45833e-08
2.64299e-05
2.9598e-08
2.64287e-05
3.42229e-08
2.64279e-05
3.76627e-08
2.64274e-05
4.07252e-08
2.64272e-05
4.31045e-08
2.64276e-05
4.47463e-08
2.64283e-05
4.61231e-08
2.64293e-05
4.66674e-08
2.64304e-05
4.68532e-08
2.64319e-05
4.63729e-08
2.64335e-05
4.56248e-08
4.44203e-08
2.64352e-05
2.85605e-05
-8.55474e-10
2.85581e-05
-1.31618e-09
2.8555e-05
2.26237e-10
2.85519e-05
3.77405e-09
2.85491e-05
8.75767e-09
2.85468e-05
1.45167e-08
2.8545e-05
2.04011e-08
2.85435e-05
2.60409e-08
2.85423e-05
3.08033e-08
2.85414e-05
3.51054e-08
2.85409e-05
3.81722e-08
2.85408e-05
4.0799e-08
2.8541e-05
4.29156e-08
2.85417e-05
4.41095e-08
2.85426e-05
4.5197e-08
2.85439e-05
4.54013e-08
2.85453e-05
4.53769e-08
2.85469e-05
4.47588e-08
2.85488e-05
4.37894e-08
4.25391e-08
2.85507e-05
3.08408e-05
4.89868e-11
3.08383e-05
1.10932e-09
3.08352e-05
3.37637e-09
3.08321e-05
6.89409e-09
3.08294e-05
1.14313e-08
3.08272e-05
1.66896e-08
3.08256e-05
2.20715e-08
3.08244e-05
2.72292e-08
3.08236e-05
3.1581e-08
3.08231e-05
3.55876e-08
3.08229e-05
3.83966e-08
3.08232e-05
4.04612e-08
3.08238e-05
4.23401e-08
3.08247e-05
4.3226e-08
3.0826e-05
4.39317e-08
3.08274e-05
4.39396e-08
3.08292e-05
4.36077e-08
3.0831e-05
4.29093e-08
3.08331e-05
4.176e-08
4.04777e-08
3.08351e-05
3.33032e-05
9.59786e-10
3.33008e-05
3.52499e-09
3.32977e-05
6.47161e-09
3.32946e-05
9.99082e-09
3.3292e-05
1.40361e-08
3.329e-05
1.86641e-08
3.32886e-05
2.35043e-08
3.32876e-05
2.81826e-08
3.32872e-05
3.20385e-08
3.32871e-05
3.56037e-08
3.32873e-05
3.82264e-08
3.3288e-05
3.97996e-08
3.3289e-05
4.13299e-08
3.32902e-05
4.2055e-08
3.32917e-05
4.23614e-08
3.32935e-05
4.21999e-08
3.32954e-05
4.16307e-08
3.32976e-05
4.08048e-08
3.32997e-05
3.95717e-08
3.82109e-08
3.3302e-05
3.59622e-05
1.84833e-09
3.59599e-05
5.84849e-09
3.5957e-05
9.43532e-09
3.5954e-05
1.29617e-08
3.59515e-05
1.65472e-08
3.59496e-05
2.05058e-08
3.59485e-05
2.46662e-08
3.59478e-05
2.88362e-08
3.59476e-05
3.2212e-08
3.5948e-05
3.52338e-08
3.59487e-05
3.75409e-08
3.59496e-05
3.8863e-08
3.5951e-05
3.99535e-08
3.59526e-05
4.04996e-08
3.59544e-05
4.05417e-08
3.59564e-05
4.0155e-08
3.59586e-05
3.94516e-08
3.59609e-05
3.84699e-08
3.59633e-05
3.72095e-08
3.57715e-08
3.59657e-05
3.88336e-05
2.68797e-09
3.88314e-05
8.01866e-09
3.88287e-05
1.2222e-08
3.88259e-05
1.57249e-08
3.88236e-05
1.88784e-08
3.88219e-05
2.22008e-08
3.88209e-05
2.56373e-08
3.88206e-05
2.91341e-08
3.88207e-05
3.20713e-08
3.88214e-05
3.45375e-08
3.88225e-05
3.64405e-08
3.88239e-05
3.75474e-08
3.88255e-05
3.82783e-08
3.88275e-05
3.85323e-08
3.88296e-05
3.84273e-08
3.88319e-05
3.78557e-08
3.88343e-05
3.70283e-08
3.88369e-05
3.59523e-08
3.88394e-05
3.46407e-08
3.31971e-08
3.8842e-05
4.19343e-05
3.4607e-09
4.19323e-05
9.97073e-09
4.19298e-05
1.47606e-08
4.19273e-05
1.82119e-08
4.19252e-05
2.09825e-08
4.19237e-05
2.36774e-08
4.19229e-05
2.64076e-08
4.19229e-05
2.91897e-08
4.19234e-05
3.15762e-08
4.19243e-05
3.35597e-08
4.19258e-05
3.50318e-08
4.19275e-05
3.58207e-08
4.19295e-05
3.62998e-08
4.19318e-05
3.62175e-08
4.19342e-05
3.59612e-08
4.19368e-05
3.53235e-08
4.19394e-05
3.43565e-08
4.19421e-05
3.32719e-08
4.19449e-05
3.19001e-08
3.04537e-08
4.19476e-05
4.52825e-05
4.13866e-09
4.52808e-05
1.16423e-08
4.52786e-05
1.69477e-08
4.52765e-05
2.03321e-08
4.52747e-05
2.27923e-08
4.52735e-05
2.49194e-08
4.52729e-05
2.69879e-08
4.5273e-05
2.90723e-08
4.52738e-05
3.08081e-08
4.5275e-05
3.23214e-08
4.52766e-05
3.33945e-08
4.52787e-05
3.37466e-08
4.5281e-05
3.40021e-08
4.52836e-05
3.36352e-08
4.52863e-05
3.32474e-08
4.52891e-05
3.25214e-08
4.5292e-05
3.14208e-08
4.5295e-05
3.0297e-08
4.5298e-05
2.89475e-08
2.76354e-08
4.53008e-05
4.88981e-05
4.68638e-09
4.88967e-05
1.29659e-08
4.8895e-05
1.86813e-08
4.88933e-05
2.19913e-08
4.88919e-05
2.42004e-08
4.8891e-05
2.58554e-08
4.88906e-05
2.73564e-08
4.88908e-05
2.88883e-08
4.88917e-05
2.99524e-08
4.88931e-05
3.0852e-08
4.88949e-05
3.162e-08
4.88972e-05
3.15015e-08
4.88997e-05
3.14467e-08
4.89024e-05
3.09508e-08
4.89055e-05
3.01785e-08
4.89085e-05
2.94572e-08
4.89117e-05
2.82668e-08
4.89149e-05
2.71146e-08
4.8918e-05
2.57861e-08
2.44911e-08
4.89212e-05
5.28023e-05
5.05545e-09
5.28015e-05
1.379e-08
5.28003e-05
1.98731e-08
5.27992e-05
2.31653e-08
5.27983e-05
2.50974e-08
5.27977e-05
2.63916e-08
5.27977e-05
2.73366e-08
5.27982e-05
2.8451e-08
5.27988e-05
2.93153e-08
5.28002e-05
2.9441e-08
5.2802e-05
2.98006e-08
5.28042e-05
2.93809e-08
5.28068e-05
2.88045e-08
5.28095e-05
2.82414e-08
5.28126e-05
2.70905e-08
5.2816e-05
2.60558e-08
5.28195e-05
2.47504e-08
5.28229e-05
2.37273e-08
5.28263e-05
2.24173e-08
2.11012e-08
5.28297e-05
5.70184e-05
5.16932e-09
5.70182e-05
1.39835e-08
5.70179e-05
2.02083e-08
5.70172e-05
2.37953e-08
5.70168e-05
2.55385e-08
5.70167e-05
2.65193e-08
5.7017e-05
2.70304e-08
5.70179e-05
2.74937e-08
5.70192e-05
2.806e-08
5.70205e-05
2.81448e-08
5.7022e-05
2.82671e-08
5.70235e-05
2.78993e-08
5.70256e-05
2.67501e-08
5.70279e-05
2.59297e-08
5.70306e-05
2.43544e-08
5.70338e-05
2.28699e-08
5.70371e-05
2.14439e-08
5.70409e-05
1.99546e-08
5.70447e-05
1.86e-08
1.71501e-08
5.70486e-05
6.15711e-05
4.98055e-09
6.15718e-05
1.33419e-08
6.15726e-05
1.93955e-08
6.15733e-05
2.31129e-08
6.15735e-05
2.53207e-08
6.15735e-05
2.65146e-08
6.15734e-05
2.70954e-08
6.15743e-05
2.65733e-08
6.15756e-05
2.67845e-08
6.15775e-05
2.62518e-08
6.15801e-05
2.56282e-08
6.15827e-05
2.53706e-08
6.15849e-05
2.45462e-08
6.15874e-05
2.33804e-08
6.15897e-05
2.20284e-08
6.15923e-05
2.03048e-08
6.1595e-05
1.87267e-08
6.15981e-05
1.69093e-08
6.16013e-05
1.54162e-08
1.38527e-08
6.16046e-05
6.64873e-05
4.49275e-09
6.64891e-05
1.14833e-08
6.64913e-05
1.72792e-08
6.64937e-05
2.06267e-08
6.6496e-05
2.31177e-08
6.64981e-05
2.43773e-08
6.64994e-05
2.57458e-08
6.64998e-05
2.61687e-08
6.64998e-05
2.68327e-08
6.64991e-05
2.69099e-08
6.64986e-05
2.61321e-08
6.64985e-05
2.54999e-08
6.64987e-05
2.43147e-08
6.64998e-05
2.23116e-08
6.65013e-05
2.05802e-08
6.65033e-05
1.82375e-08
6.65059e-05
1.61375e-08
6.65085e-05
1.43151e-08
6.6512e-05
1.19366e-08
9.49416e-09
6.65163e-05
7.17959e-05
3.77927e-09
7.17984e-05
8.97961e-09
7.18017e-05
1.39515e-08
7.18057e-05
1.6608e-08
7.18097e-05
1.91717e-08
7.18137e-05
2.03864e-08
7.18173e-05
2.20833e-08
7.18206e-05
2.28883e-08
7.18235e-05
2.39679e-08
7.18255e-05
2.49132e-08
7.18264e-05
2.51902e-08
7.18269e-05
2.49761e-08
7.18266e-05
2.46943e-08
7.18259e-05
2.29187e-08
7.18257e-05
2.08014e-08
7.18269e-05
1.70282e-08
7.1829e-05
1.40254e-08
7.18326e-05
1.07868e-08
7.18369e-05
7.59909e-09
4.67417e-09
7.18417e-05
7.7529e-05
7.75328e-05
7.75382e-05
7.75445e-05
7.75514e-05
7.75586e-05
7.75662e-05
7.75739e-05
7.75819e-05
7.75901e-05
7.75979e-05
7.76055e-05
7.76126e-05
7.76187e-05
7.76236e-05
7.76263e-05
7.76281e-05
7.7629e-05
7.76293e-05
7.76294e-05
3.77555e-06
6.79455e-08
3.68119e-06
9.43535e-08
3.58155e-06
9.96419e-08
3.48327e-06
9.82855e-08
3.38516e-06
9.81002e-08
3.28579e-06
9.93701e-08
3.18461e-06
1.0118e-07
3.08159e-06
1.03029e-07
2.97682e-06
1.04762e-07
2.87032e-06
1.065e-07
2.76203e-06
1.08296e-07
2.65181e-06
1.10212e-07
2.53966e-06
1.12152e-07
2.4257e-06
1.13967e-07
2.30988e-06
1.15813e-07
2.19239e-06
1.17495e-07
2.07334e-06
1.19049e-07
1.95293e-06
1.20412e-07
1.83154e-06
1.21383e-07
1.70985e-06
1.21693e-07
1.58863e-06
1.21219e-07
1.46911e-06
1.19517e-07
1.35348e-06
1.1563e-07
1.24421e-06
1.09277e-07
1.14462e-06
9.95821e-08
1.05823e-06
8.63892e-08
9.88161e-07
7.00739e-08
9.35611e-07
5.25499e-08
8.98719e-07
3.68924e-08
8.73425e-07
2.52934e-08
8.55666e-07
1.77589e-08
8.42553e-07
1.31139e-08
8.32021e-07
1.05312e-08
8.22927e-07
9.09392e-09
8.14438e-07
8.48987e-09
8.05917e-07
8.52029e-09
7.97019e-07
8.89857e-09
7.87623e-07
9.39588e-09
7.77793e-07
9.83011e-09
7.6757e-07
1.02224e-08
7.57081e-07
1.04896e-08
7.46323e-07
1.07578e-08
7.35401e-07
1.09219e-08
7.24411e-07
1.09905e-08
7.13378e-07
1.10331e-08
7.0245e-07
1.09279e-08
6.9164e-07
1.08094e-08
6.81064e-07
1.05766e-08
6.70761e-07
1.03024e-08
6.60709e-07
1.00518e-08
6.50901e-07
9.80868e-09
6.41236e-07
9.66471e-09
6.31866e-07
9.37045e-09
6.22779e-07
9.08631e-09
6.13854e-07
8.92529e-09
6.05275e-07
8.57892e-09
5.97064e-07
8.21158e-09
5.89103e-07
7.96053e-09
5.81396e-07
7.70684e-09
5.73841e-07
7.55486e-09
5.66568e-07
7.27365e-09
5.59664e-07
6.90384e-09
5.52933e-07
6.73043e-09
5.46465e-07
6.46885e-09
5.40302e-07
6.163e-09
5.34329e-07
5.9729e-09
5.28641e-07
5.68801e-09
5.23168e-07
5.47266e-09
5.18e-07
5.16806e-09
5.13228e-07
4.77184e-09
5.08555e-07
4.67298e-09
5.04112e-07
4.44333e-09
5.00029e-07
4.08279e-09
4.95975e-07
4.05388e-09
4.92262e-07
3.71273e-09
4.89102e-07
3.16067e-09
4.85889e-07
3.21254e-09
4.82671e-07
3.21841e-09
4.7994e-07
2.73065e-09
4.77585e-07
2.35492e-09
4.75252e-07
2.33328e-09
4.72977e-07
2.27488e-09
4.70983e-07
1.99447e-09
4.69292e-07
1.69073e-09
4.67681e-07
1.6106e-09
4.6614e-07
1.54122e-09
4.64835e-07
1.30462e-09
4.63695e-07
1.14007e-09
4.62589e-07
1.10599e-09
4.6163e-07
9.59252e-10
4.60815e-07
8.15349e-10
4.60075e-07
7.39512e-10
4.5939e-07
6.85511e-10
4.58822e-07
5.68125e-10
4.58319e-07
5.0299e-10
4.57877e-07
4.4185e-10
4.57455e-07
4.21995e-10
4.57086e-07
3.68708e-10
4.5666e-07
4.25732e-10
6.56444e-10
4.16548e-06
6.24198e-08
4.16923e-06
9.05981e-08
4.16374e-06
1.05135e-07
4.1539e-06
1.08122e-07
4.14308e-06
1.08928e-07
4.13103e-06
1.11419e-07
4.11673e-06
1.15475e-07
4.09958e-06
1.20179e-07
4.07949e-06
1.24851e-07
4.05639e-06
1.29605e-07
4.03019e-06
1.34497e-07
4.00068e-06
1.39724e-07
3.96767e-06
1.45158e-07
3.93102e-06
1.50613e-07
3.89059e-06
1.56249e-07
3.8462e-06
1.61888e-07
3.79774e-06
1.67503e-07
3.74512e-06
1.73034e-07
3.68819e-06
1.78309e-07
3.62713e-06
1.82753e-07
3.56206e-06
1.86297e-07
3.49334e-06
1.8823e-07
3.42186e-06
1.87114e-07
3.3487e-06
1.82439e-07
3.27526e-06
1.73022e-07
3.20337e-06
1.58279e-07
3.13509e-06
1.38356e-07
3.07191e-06
1.15727e-07
3.01486e-06
9.39453e-08
2.96351e-06
7.66434e-08
2.91626e-06
6.5006e-08
2.87158e-06
5.77958e-08
2.82871e-06
5.33989e-08
2.78693e-06
5.08719e-08
2.74604e-06
4.93783e-08
2.70581e-06
4.87491e-08
2.66587e-06
4.88413e-08
2.6263e-06
4.89695e-08
2.58703e-06
4.90961e-08
2.54809e-06
4.91639e-08
2.50961e-06
4.89694e-08
2.47142e-06
4.89503e-08
2.43366e-06
4.86803e-08
2.39634e-06
4.83085e-08
2.35948e-06
4.78974e-08
2.3232e-06
4.72005e-08
2.28743e-06
4.65813e-08
2.25248e-06
4.55339e-08
2.21836e-06
4.44191e-08
2.18485e-06
4.35632e-08
2.1522e-06
4.24522e-08
2.12039e-06
4.14776e-08
2.08928e-06
4.04794e-08
2.05902e-06
3.93499e-08
2.02953e-06
3.84133e-08
2.00091e-06
3.72039e-08
1.97331e-06
3.58073e-08
1.94655e-06
3.47154e-08
1.92051e-06
3.37522e-08
1.89526e-06
3.28017e-08
1.87093e-06
3.16088e-08
1.84739e-06
3.04371e-08
1.82456e-06
2.9564e-08
1.80265e-06
2.83828e-08
1.78159e-06
2.72151e-08
1.76114e-06
2.64313e-08
1.74141e-06
2.54179e-08
1.72256e-06
2.43204e-08
1.70465e-06
2.30732e-08
1.68761e-06
2.18174e-08
1.67116e-06
2.11223e-08
1.65543e-06
2.01736e-08
1.64059e-06
1.89197e-08
1.62651e-06
1.81333e-08
1.61332e-06
1.69023e-08
1.60098e-06
1.55029e-08
1.58913e-06
1.5067e-08
1.57798e-06
1.43657e-08
1.56783e-06
1.28748e-08
1.55845e-06
1.17363e-08
1.54956e-06
1.12228e-08
1.54127e-06
1.05645e-08
1.53373e-06
9.53459e-09
1.52689e-06
8.53883e-09
1.52053e-06
7.96328e-09
1.5147e-06
7.3743e-09
1.50946e-06
6.54705e-09
1.50471e-06
5.88612e-09
1.50035e-06
5.46936e-09
1.49647e-06
4.83592e-09
1.49299e-06
4.2941e-09
1.48988e-06
3.84832e-09
1.48706e-06
3.50893e-09
1.48464e-06
2.99256e-09
1.48243e-06
2.71306e-09
1.48055e-06
2.31556e-09
1.47878e-06
2.19003e-09
1.47732e-06
1.83587e-09
1.47589e-06
1.85423e-09
2.31177e-09
4.4978e-06
6.02425e-08
4.50372e-06
8.46788e-08
4.50703e-06
1.01823e-07
4.50651e-06
1.08648e-07
4.50511e-06
1.10325e-07
4.50453e-06
1.11999e-07
4.50451e-06
1.15494e-07
4.50435e-06
1.20342e-07
4.50365e-06
1.25546e-07
4.50226e-06
1.31001e-07
4.50011e-06
1.36639e-07
4.4971e-06
1.42739e-07
4.49309e-06
1.49168e-07
4.48792e-06
1.5578e-07
4.48149e-06
1.62677e-07
4.47363e-06
1.69751e-07
4.46423e-06
1.76907e-07
4.45315e-06
1.84115e-07
4.44019e-06
1.9127e-07
4.4253e-06
1.97643e-07
4.40841e-06
2.0318e-07
4.38952e-06
2.07127e-07
4.36851e-06
2.08125e-07
4.34565e-06
2.05299e-07
4.32099e-06
1.97673e-07
4.29487e-06
1.84403e-07
4.26772e-06
1.6551e-07
4.24024e-06
1.43201e-07
4.21347e-06
1.20722e-07
4.18803e-06
1.02081e-07
4.16361e-06
8.94248e-08
4.13951e-06
8.18962e-08
4.11534e-06
7.75716e-08
4.09083e-06
7.53748e-08
4.06588e-06
7.43305e-08
4.04045e-06
7.41859e-08
4.01448e-06
7.48113e-08
3.98792e-06
7.55246e-08
3.96078e-06
7.62315e-08
3.93308e-06
7.68691e-08
3.90475e-06
7.7299e-08
3.87583e-06
7.78665e-08
3.84624e-06
7.82785e-08
3.81608e-06
7.84672e-08
3.7854e-06
7.8571e-08
3.75419e-06
7.84156e-08
3.72263e-06
7.81359e-08
3.69068e-06
7.74907e-08
3.6585e-06
7.65955e-08
3.6261e-06
7.59641e-08
3.59334e-06
7.52075e-08
3.56054e-06
7.4281e-08
3.52755e-06
7.34658e-08
3.49441e-06
7.24968e-08
3.46129e-06
7.15319e-08
3.42815e-06
7.0341e-08
3.39524e-06
6.87153e-08
3.36251e-06
6.74522e-08
3.32978e-06
6.64779e-08
3.2973e-06
6.52809e-08
3.26516e-06
6.37487e-08
3.23335e-06
6.22468e-08
3.20183e-06
6.10842e-08
3.17071e-06
5.95088e-08
3.14022e-06
5.76965e-08
3.11016e-06
5.64953e-08
3.08042e-06
5.51619e-08
3.05148e-06
5.32614e-08
3.02337e-06
5.11778e-08
2.99584e-06
4.93531e-08
2.96911e-06
4.78437e-08
2.94324e-06
4.60443e-08
2.91798e-06
4.41824e-08
2.89369e-06
4.24255e-08
2.87072e-06
3.98709e-08
2.8486e-06
3.76226e-08
2.82708e-06
3.65847e-08
2.8067e-06
3.47474e-08
2.78768e-06
3.19002e-08
2.76963e-06
2.97853e-08
2.75236e-06
2.84899e-08
2.73614e-06
2.67799e-08
2.72109e-06
2.45921e-08
2.70703e-06
2.25986e-08
2.69382e-06
2.11726e-08
2.68161e-06
1.95799e-08
2.67034e-06
1.78224e-08
2.65992e-06
1.63027e-08
2.65025e-06
1.51374e-08
2.6415e-06
1.35865e-08
2.63342e-06
1.23717e-08
2.62613e-06
1.11452e-08
2.61938e-06
1.02541e-08
2.61345e-06
8.92815e-09
2.60792e-06
8.24056e-09
2.60313e-06
7.09916e-09
2.59862e-06
6.69999e-09
2.59478e-06
5.6785e-09
2.59113e-06
5.50252e-09
5.69967e-09
4.85832e-06
5.97638e-08
4.86283e-06
8.01774e-08
4.86725e-06
9.74007e-08
4.86847e-06
1.07423e-07
4.86791e-06
1.10886e-07
4.86787e-06
1.12036e-07
4.86855e-06
1.14823e-07
4.86983e-06
1.19061e-07
4.87132e-06
1.24054e-07
4.87275e-06
1.29573e-07
4.87404e-06
1.35344e-07
4.87521e-06
1.41573e-07
4.87624e-06
1.48131e-07
4.87711e-06
1.54916e-07
4.87782e-06
1.61964e-07
4.87834e-06
1.69232e-07
4.87867e-06
1.7658e-07
4.8788e-06
1.8398e-07
4.87868e-06
1.91393e-07
4.8783e-06
1.98019e-07
4.8777e-06
2.03784e-07
4.87682e-06
2.08005e-07
4.8754e-06
2.09539e-07
4.87328e-06
2.07421e-07
4.87023e-06
2.00722e-07
4.86587e-06
1.88762e-07
4.85989e-06
1.7149e-07
4.8524e-06
1.50691e-07
4.84402e-06
1.29108e-07
4.83552e-06
1.1058e-07
4.82728e-06
9.76615e-08
4.81904e-06
9.01384e-08
4.8106e-06
8.60123e-08
4.80183e-06
8.41475e-08
4.79261e-06
8.35499e-08
4.78302e-06
8.37747e-08
4.7731e-06
8.47268e-08
4.76283e-06
8.57922e-08
4.75215e-06
8.69117e-08
4.74108e-06
8.79394e-08
4.72952e-06
8.88631e-08
4.71746e-06
8.9929e-08
4.7048e-06
9.09342e-08
4.69149e-06
9.17825e-08
4.67758e-06
9.2479e-08
4.66297e-06
9.30221e-08
4.64782e-06
9.3288e-08
4.63209e-06
9.32179e-08
4.61579e-06
9.28934e-08
4.59903e-06
9.273e-08
4.58159e-06
9.2644e-08
4.56362e-06
9.22569e-08
4.54511e-06
9.19706e-08
4.52595e-06
9.16543e-08
4.50633e-06
9.11605e-08
4.4862e-06
9.04695e-08
4.46557e-06
8.93399e-08
4.44456e-06
8.84621e-08
4.42305e-06
8.79919e-08
4.40107e-06
8.72575e-08
4.37882e-06
8.59992e-08
4.35619e-06
8.48763e-08
4.33319e-06
8.40818e-08
4.30995e-06
8.27578e-08
4.28649e-06
8.11514e-08
4.26286e-06
8.01242e-08
4.23897e-06
7.90542e-08
4.21497e-06
7.72582e-08
4.19116e-06
7.49883e-08
4.16724e-06
7.32766e-08
4.1433e-06
7.17847e-08
4.11969e-06
6.96528e-08
4.0961e-06
6.77709e-08
4.07267e-06
6.5861e-08
4.04991e-06
6.26274e-08
4.02746e-06
6.00693e-08
4.00509e-06
5.89532e-08
3.98335e-06
5.64917e-08
3.96242e-06
5.28269e-08
3.94207e-06
5.0136e-08
3.92215e-06
4.84158e-08
3.90294e-06
4.59899e-08
3.88456e-06
4.29688e-08
3.86699e-06
4.01687e-08
3.85001e-06
3.81486e-08
3.83396e-06
3.56279e-08
3.81869e-06
3.30971e-08
3.80425e-06
3.07418e-08
3.79045e-06
2.89393e-08
3.77767e-06
2.63645e-08
3.76551e-06
2.45356e-08
3.75428e-06
2.2371e-08
3.74359e-06
2.09452e-08
3.73394e-06
1.85769e-08
3.72472e-06
1.74593e-08
3.71653e-06
1.52923e-08
3.70865e-06
1.45823e-08
3.70175e-06
1.25753e-08
3.69507e-06
1.21803e-08
1.15526e-08
5.24794e-06
5.97946e-08
5.2513e-06
7.68136e-08
5.25534e-06
9.33597e-08
5.25772e-06
1.05047e-07
5.25818e-06
1.10426e-07
5.25816e-06
1.1206e-07
5.25858e-06
1.14405e-07
5.25971e-06
1.17926e-07
5.26134e-06
1.22424e-07
5.2631e-06
1.27811e-07
5.26481e-06
1.33632e-07
5.2665e-06
1.39884e-07
5.26817e-06
1.46463e-07
5.26983e-06
1.53254e-07
5.27155e-06
1.60248e-07
5.27334e-06
1.67444e-07
5.27522e-06
1.74699e-07
5.27728e-06
1.81917e-07
5.27951e-06
1.89166e-07
5.28197e-06
1.95557e-07
5.28474e-06
2.01013e-07
5.28782e-06
2.04932e-07
5.29095e-06
2.06402e-07
5.29395e-06
2.04421e-07
5.29654e-06
1.98138e-07
5.29822e-06
1.87078e-07
5.29854e-06
1.71168e-07
5.29735e-06
1.51886e-07
5.29501e-06
1.31447e-07
5.29225e-06
1.1334e-07
5.28965e-06
1.00259e-07
5.28722e-06
9.25685e-08
5.28482e-06
8.84091e-08
5.28234e-06
8.66283e-08