/*--------------------------------*- C++ -*----------------------------------*\
  =========                 |
  \\      /  F ield         | OpenFOAM: The Open Source CFD Toolbox
   \\    /   O peration     | Website:  https://openfoam.org
    \\  /    A nd           | Version:  10
     \\/     M anipulation  |
\*---------------------------------------------------------------------------*/
FoamFile
{
    format      ascii;
    class       volVectorField;
    location    "0.9";
    object      U;
}
// * * * * * * * * * * * * * * * * * * * * * * * * * * * * * * * * * * * * * //

dimensions      [0 1 -1 0 0 0 0];

internalField   nonuniform List<vector> 
4800
(
(0.960323 -3.76962e-05 0)
(1.0391 -0.000126585 0)
(0.964009 4.70967e-05 0)
(1.03539 -0.000163581 0)
(0.967454 0.000212881 0)
(1.0322 -0.000442573 0)
(0.970674 -8.48233e-05 0)
(1.02867 -0.00048058 0)
(0.973712 -5.07898e-05 0)
(1.02532 -0.000299889 0)
(0.97662 0.000187418 0)
(1.02254 -0.000184257 0)
(0.97947 0.00020993 0)
(1.01989 -0.000359192 0)
(0.981671 9.40478e-06 0)
(1.01701 -0.000515843 0)
(0.983263 -7.30381e-06 0)
(1.01395 -0.000507661 0)
(0.984081 0.000303247 0)
(1.01067 0.000683729 0)
(0.982697 -0.000110593 0)
(1.0148 -8.79174e-05 0)
(0.986727 2.85615e-05 0)
(1.01139 -0.0001335 0)
(0.990018 0.000186966 0)
(1.00875 -0.000447088 0)
(0.992648 -7.27654e-05 0)
(1.00619 -0.000518926 0)
(0.994649 -3.05469e-05 0)
(1.00414 -0.000381382 0)
(0.996257 0.000183362 0)
(1.00283 -0.000299526 0)
(0.997618 0.000193304 0)
(1.00175 -0.00047552 0)
(0.998265 9.52889e-06 0)
(1.00052 -0.00059365 0)
(0.99828 9.86336e-05 0)
(0.999132 -0.000211799 0)
(0.997788 0.00111772 0)
(0.997625 0.00199815 0)
(0.995956 -1.62266e-05 0)
(1.00274 -0.000180791 0)
(0.997412 0.000101879 0)
(1.00171 -0.000195214 0)
(0.998489 0.000215168 0)
(1.0012 -0.00042161 0)
(0.999157 -8.61682e-05 0)
(1.00059 -0.00041804 0)
(0.999452 -0.000103282 0)
(1.00019 -0.000230143 0)
(0.999683 1.27851e-05 0)
(1.00018 -9.46774e-05 0)
(0.999956 -1.07241e-05 0)
(1.00009 -0.000240211 0)
(0.999802 -0.000169549 0)
(0.99962 -0.000243017 0)
(0.999275 1.8395e-05 0)
(0.998884 0.000501499 0)
(0.998472 0.00142893 0)
(0.997962 0.00240457 0)
(0.999448 -3.58184e-05 0)
(1.00026 -0.000185407 0)
(0.999721 8.95241e-05 0)
(1.00018 -0.000185062 0)
(1.00005 0.000178084 0)
(1.00034 -0.000419089 0)
(1.00014 -0.000157798 0)
(1.00018 -0.000366077 0)
(1.00011 -0.000201682 0)
(1.00005 -0.000159507 0)
(1.00015 -6.99362e-05 0)
(1.0002 -8.20092e-05 0)
(1.00028 -0.000107 0)
(1.0002 -0.000266037 0)
(1.00007 -0.000220805 0)
(0.999824 -0.000157303 0)
(0.999569 0.000198228 0)
(0.99923 0.000850479 0)
(0.998858 0.00163128 0)
(0.998388 0.00247941 0)
(0.999983 -1.39901e-05 0)
(0.999995 -0.000173247 0)
(1.00004 6.47115e-05 0)
(1.00007 -0.000139979 0)
(1.00027 0.000110148 0)
(1.00036 -0.000306119 0)
(1.00027 -0.0002531 0)
(1.00023 -0.000233472 0)
(1.00025 -0.0002924 0)
(1.00013 -0.000122597 0)
(1.00027 -0.00016295 0)
(1.00029 -0.000138286 0)
(1.00038 -0.000159541 0)
(1.0003 -0.000250112 0)
(1.00019 -0.00016596 0)
(0.999983 5.26297e-05 0)
(0.999801 0.000601898 0)
(0.999489 0.00125334 0)
(0.999144 0.00187116 0)
(0.998712 0.00263479 0)
(1.00004 -2.33732e-05 0)
(0.999983 -0.000167088 0)
(1.00009 1.29496e-05 0)
(1.00008 -9.74155e-05 0)
(1.00029 3.18305e-05 0)
(1.00037 -0.000235422 0)
(1.0003 -0.000335196 0)
(1.00024 -0.000210525 0)
(1.00029 -0.000318667 0)
(1.00017 -0.000162601 0)
(1.0003 -0.000216303 0)
(1.00032 -0.000147589 0)
(1.0004 -0.000194309 0)
(1.00033 -0.000192727 0)
(1.00026 -4.01266e-05 0)
(1.00011 0.000420028 0)
(0.999959 0.000911922 0)
(0.999657 0.0014556 0)
(0.999345 0.00198527 0)
(0.998954 0.00267196 0)
(1.00005 -1.77887e-05 0)
(0.999988 -0.00014236 0)
(1.0001 -3.3588e-05 0)
(1.00008 -5.25245e-05 0)
(1.0003 -2.95048e-05 0)
(1.00038 -0.000206327 0)
(1.0003 -0.000306264 0)
(1.00025 -0.000271288 0)
(1.0003 -0.000306758 0)
(1.00019 -0.00022671 0)
(1.00031 -0.000225625 0)
(1.00033 -0.000204942 0)
(1.0004 -0.000165181 0)
(1.00036 -9.45268e-05 0)
(1.00035 0.00029399 0)
(1.00021 0.000723953 0)
(1.00007 0.00109727 0)
(0.999792 0.0015602 0)
(0.999516 0.0020796 0)
(0.999171 0.00271096 0)
(1.00005 -2.87296e-05 0)
(0.99999 -9.83798e-05 0)
(1.00011 -0.000110229 0)
(1.00009 -1.15442e-05 0)
(1.00029 -6.60125e-05 0)
(1.00037 -0.000231117 0)
(1.0003 -0.000299489 0)
(1.00025 -0.000288859 0)
(1.00031 -0.000392498 0)
(1.00021 -0.000243013 0)
(1.00032 -0.000270434 0)
(1.00035 -0.000199578 0)
(1.00043 -6.11582e-05 0)
(1.00043 0.000187889 0)
(1.00043 0.000556989 0)
(1.0003 0.000887581 0)
(1.00017 0.00119768 0)
(0.999929 0.00162962 0)
(0.999687 0.00215526 0)
(0.999382 0.00274453 0)
(1.00005 -2.12373e-05 0)
(0.999993 -8.22474e-05 0)
(1.00012 -0.000136091 0)
(1.00011 -4.00744e-05 0)
(1.00028 -3.2215e-05 0)
(1.00037 -0.000282817 0)
(1.0003 -0.000290389 0)
(1.00025 -0.000310227 0)
(1.00031 -0.000394763 0)
(1.00023 -0.000312801 0)
(1.00033 -0.000243841 0)
(1.00039 -0.000154527 0)
(1.00049 0.000163091 0)
(1.0005 0.000430252 0)
(1.0005 0.000701925 0)
(1.00037 0.000987451 0)
(1.00027 0.00129048 0)
(1.00007 0.00170833 0)
(0.999865 0.00222767 0)
(0.999593 0.00279004 0)
(1.00005 -3.28814e-05 0)
(0.999991 -4.70134e-05 0)
(1.00012 -0.000151487 0)
(1.00012 -8.87391e-05 0)
(1.00027 -3.87046e-05 0)
(1.00036 -0.000263451 0)
(1.0003 -0.000365938 0)
(1.00025 -0.000309348 0)
(1.00031 -0.000416061 0)
(1.00024 -0.000333219 0)
(1.00035 -0.000202666 0)
(1.00044 3.60949e-05 0)
(1.00055 0.00036971 0)
(1.00056 0.000582439 0)
(1.00057 0.000790968 0)
(1.00046 0.00107504 0)
(1.00038 0.00138636 0)
(1.00023 0.00179144 0)
(1.00005 0.00228746 0)
(0.999805 0.00282204 0)
(1.00004 -2.4511e-05 0)
(0.999991 -4.98255e-05 0)
(1.00012 -0.000111531 0)
(1.00013 -0.000177146 0)
(1.00027 -6.69963e-05 0)
(1.00035 -0.000244689 0)
(1.0003 -0.000383987 0)
(1.00025 -0.000363529 0)
(1.00031 -0.000386973 0)
(1.00027 -0.000295459 0)
(1.0004 -7.55676e-05 0)
(1.00051 0.000204223 0)
(1.00061 0.000514038 0)
(1.00061 0.000690666 0)
(1.00064 0.00087488 0)
(1.00055 0.00116161 0)
(1.00049 0.0014851 0)
(1.00038 0.00187437 0)
(1.00024 0.00233768 0)
(1.00002 0.00283947 0)
(1.00005 -3.06707e-05 0)
(0.99999 -4.42604e-05 0)
(1.00012 -9.53028e-05 0)
(1.00014 -0.000203916 0)
(1.00027 -0.000151599 0)
(1.00033 -0.000244004 0)
(1.00029 -0.000361918 0)
(1.00026 -0.000388464 0)
(1.00033 -0.000367401 0)
(1.00031 -0.000166438 0)
(1.00046 8.99085e-05 0)
(1.00058 0.000315923 0)
(1.00067 0.000571445 0)
(1.00066 0.000755474 0)
(1.00071 0.000939619 0)
(1.00065 0.00122765 0)
(1.00062 0.00156341 0)
(1.00054 0.00194401 0)
(1.00043 0.00237809 0)
(1.00023 0.00284816 0)
(1.00004 -3.05911e-05 0)
(0.999992 -5.30836e-05 0)
(1.00011 -8.71285e-05 0)
(1.00013 -0.000176303 0)
(1.00028 -0.000255071 0)
(1.00033 -0.000298271 0)
(1.00029 -0.000327224 0)
(1.00026 -0.000334903 0)
(1.00036 -0.000338308 0)
(1.00037 -2.85452e-05 0)
(1.00051 0.000247848 0)
(1.00063 0.000422676 0)
(1.00073 0.000633663 0)
(1.00072 0.000838383 0)
(1.00079 0.00103171 0)
(1.00076 0.00131494 0)
(1.00076 0.00164909 0)
(1.0007 0.00202004 0)
(1.00063 0.00242233 0)
(1.00044 0.00285472 0)
(1.00004 -3.11007e-05 0)
(0.999993 -6.4322e-05 0)
(1.00011 -0.000104882 0)
(1.00013 -0.000147481 0)
(1.00027 -0.000286401 0)
(1.00033 -0.000399239 0)
(1.0003 -0.00032659 0)
(1.00026 -0.000227965 0)
(1.0004 -0.000205554 0)
(1.00044 4.41851e-05 0)
(1.00057 0.00031919 0)
(1.00068 0.000495373 0)
(1.00079 0.00069222 0)
(1.00079 0.000917305 0)
(1.00088 0.00112517 0)
(1.00088 0.00139919 0)
(1.0009 0.00172485 0)
(1.00087 0.00208704 0)
(1.00082 0.00246406 0)
(1.00066 0.00286017 0)
(1.00004 -3.73118e-05 0)
(0.999995 -5.62772e-05 0)
(1.00012 -0.000148725 0)
(1.00013 -0.000127792 0)
(1.00026 -0.000273842 0)
(1.00034 -0.000440915 0)
(1.00033 -0.000391136 0)
(1.00029 -0.000120635 0)
(1.00043 -7.61524e-06 0)
(1.00049 0.000141097 0)
(1.00063 0.000382274 0)
(1.00074 0.000553958 0)
(1.00086 0.000741015 0)
(1.00087 0.000970722 0)
(1.00097 0.00118916 0)
(1.001 0.00145672 0)
(1.00106 0.00177118 0)
(1.00105 0.0021243 0)
(1.00102 0.00248211 0)
(1.00087 0.00284597 0)
(1.00004 -4.30156e-05 0)
(0.99999 -4.28218e-05 0)
(1.00012 -0.000184453 0)
(1.00013 -0.000167249 0)
(1.00024 -0.000218308 0)
(1.00033 -0.000404919 0)
(1.00037 -0.00040856 0)
(1.00035 -0.000109688 0)
(1.00047 0.0001269 0)
(1.00054 0.000294542 0)
(1.00069 0.000479045 0)
(1.0008 0.000629114 0)
(1.00094 0.000799618 0)
(1.00096 0.00103149 0)
(1.00107 0.00125982 0)
(1.00113 0.00152391 0)
(1.00121 0.00182185 0)
(1.00123 0.00215728 0)
(1.00121 0.00249583 0)
(1.00108 0.0028306 0)
(1.00004 -4.32202e-05 0)
(0.999986 -5.35052e-05 0)
(1.00011 -0.000170458 0)
(1.00013 -0.000244176 0)
(1.00023 -0.000191439 0)
(1.00032 -0.000310342 0)
(1.0004 -0.000336358 0)
(1.00042 -0.000112904 0)
(1.00054 0.000158497 0)
(1.0006 0.00038537 0)
(1.00074 0.000574183 0)
(1.00085 0.000718543 0)
(1.00101 0.000869353 0)
(1.00106 0.00109452 0)
(1.00118 0.0013255 0)
(1.00127 0.00158594 0)
(1.00137 0.00186851 0)
(1.00141 0.00218094 0)
(1.00141 0.00250219 0)
(1.00129 0.00281158 0)
(1.00004 -4.0951e-05 0)
(0.999984 -7.95273e-05 0)
(1.0001 -0.000151787 0)
(1.00014 -0.000266169 0)
(1.00024 -0.000220866 0)
(1.00032 -0.000206711 0)
(1.00043 -0.000214563 0)
(1.00048 -6.28446e-05 0)
(1.00061 0.000160664 0)
(1.00067 0.000401336 0)
(1.0008 0.000630303 0)
(1.00091 0.000799156 0)
(1.00109 0.000944219 0)
(1.00116 0.00115795 0)
(1.0013 0.00138531 0)
(1.00141 0.00163885 0)
(1.00153 0.00190752 0)
(1.0016 0.00219339 0)
(1.00161 0.00249395 0)
(1.0015 0.0027778 0)
(1.00004 -3.89481e-05 0)
(0.999986 -0.000106854 0)
(1.0001 -0.000145231 0)
(1.00014 -0.000236968 0)
(1.00026 -0.000235284 0)
(1.00034 -0.000153683 0)
(1.00046 -9.14118e-05 0)
(1.00053 4.23672e-05 0)
(1.00068 0.0002044 0)
(1.00076 0.000412994 0)
(1.00088 0.000648585 0)
(1.00098 0.00085066 0)
(1.00117 0.00100765 0)
(1.00126 0.00121616 0)
(1.00143 0.00143809 0)
(1.00155 0.00168154 0)
(1.0017 0.00193982 0)
(1.00179 0.00220278 0)
(1.00182 0.00248361 0)
(1.00171 0.00274518 0)
(1.00004 -4.14491e-05 0)
(0.999988 -0.000113275 0)
(1.0001 -0.0001617 0)
(1.00015 -0.00020036 0)
(1.00029 -0.000202919 0)
(1.00037 -0.000127292 0)
(1.0005 -7.70907e-06 0)
(1.00058 0.000145965 0)
(1.00074 0.000289773 0)
(1.00084 0.00045714 0)
(1.00098 0.000669363 0)
(1.00107 0.00088755 0)
(1.00127 0.00105903 0)
(1.00138 0.00126828 0)
(1.00156 0.00148673 0)
(1.0017 0.00171565 0)
(1.00187 0.00196371 0)
(1.00198 0.00220403 0)
(1.00202 0.00246393 0)
(1.00192 0.00270285 0)
(1.00004 -4.28935e-05 0)
(0.99999 -0.000114164 0)
(1.00011 -0.00016917 0)
(1.00017 -0.000173687 0)
(1.00031 -0.000145 0)
(1.00042 -7.40652e-05 0)
(1.00056 4.21258e-05 0)
(1.00065 0.00020783 0)
(1.0008 0.000361025 0)
(1.00091 0.000513508 0)
(1.00107 0.000698923 0)
(1.00117 0.000914192 0)
(1.00137 0.00109456 0)
(1.00151 0.00129976 0)
(1.0017 0.0015197 0)
(1.00186 0.00173493 0)
(1.00204 0.00197255 0)
(1.00217 0.002195 0)
(1.00222 0.00243227 0)
(1.00213 0.00265294 0)
(1.00004 -4.06896e-05 0)
(0.999992 -0.000113697 0)
(1.00012 -0.000159171 0)
(1.00019 -0.000154782 0)
(1.00035 -9.22826e-05 0)
(1.00046 -8.29593e-06 0)
(1.00062 9.39084e-05 0)
(1.00071 0.000254879 0)
(1.00087 0.000415714 0)
(1.00099 0.000570484 0)
(1.00117 0.000739227 0)
(1.00128 0.000944849 0)
(1.00149 0.0011296 0)
(1.00164 0.00132425 0)
(1.00184 0.00154165 0)
(1.00202 0.00174714 0)
(1.00222 0.00196863 0)
(1.00236 0.0021787 0)
(1.00243 0.00239064 0)
(1.00233 0.00259655 0)
(1.00004 -3.86458e-05 0)
(0.999995 -0.000106838 0)
(1.00014 -0.000140406 0)
(1.00022 -0.000124055 0)
(1.00039 -5.58525e-05 0)
(1.0005 4.92546e-05 0)
(1.00067 0.000157179 0)
(1.00078 0.000304821 0)
(1.00095 0.000463349 0)
(1.00107 0.000621234 0)
(1.00127 0.000779619 0)
(1.00139 0.000973815 0)
(1.00161 0.00115955 0)
(1.00178 0.00134552 0)
(1.002 0.00155192 0)
(1.00219 0.00175176 0)
(1.0024 0.00195509 0)
(1.00254 0.00215382 0)
(1.00263 0.00234457 0)
(1.00254 0.00253392 0)
(1.00004 -3.3089e-05 0)
(1 -9.48315e-05 0)
(1.00015 -0.000114996 0)
(1.00025 -8.90037e-05 0)
(1.00043 -1.94115e-05 0)
(1.00056 9.35216e-05 0)
(1.00074 0.000212775 0)
(1.00086 0.000351399 0)
(1.00103 0.000504254 0)
(1.00116 0.000662778 0)
(1.00137 0.000817242 0)
(1.00151 0.000997791 0)
(1.00173 0.00118068 0)
(1.00192 0.00136138 0)
(1.00215 0.0015525 0)
(1.00236 0.00174448 0)
(1.00258 0.00193322 0)
(1.00273 0.0021165 0)
(1.00282 0.00229186 0)
(1.00274 0.0024607 0)
(1.00004 -2.84933e-05 0)
(1.00001 -7.56086e-05 0)
(1.00017 -8.5002e-05 0)
(1.00028 -5.02746e-05 0)
(1.00048 2.36661e-05 0)
(1.00062 0.000131122 0)
(1.0008 0.000255335 0)
(1.00093 0.000393555 0)
(1.00112 0.000540636 0)
(1.00125 0.00069791 0)
(1.00147 0.000850256 0)
(1.00162 0.00102002 0)
(1.00186 0.00119414 0)
(1.00206 0.00136903 0)
(1.00231 0.00154662 0)
(1.00252 0.00172536 0)
(1.00275 0.00190289 0)
(1.00291 0.00206943 0)
(1.00301 0.00223206 0)
(1.00293 0.00238146 0)
(1.00004 -2.11355e-05 0)
(1.00001 -5.22274e-05 0)
(1.00019 -5.19532e-05 0)
(1.00032 -1.10039e-05 0)
(1.00053 6.45907e-05 0)
(1.00067 0.000168558 0)
(1.00087 0.000291409 0)
(1.00101 0.000429552 0)
(1.0012 0.000573426 0)
(1.00134 0.000725517 0)
(1.00158 0.000872777 0)
(1.00174 0.00103643 0)
(1.00199 0.00120063 0)
(1.0022 0.00136602 0)
(1.00246 0.00153587 0)
(1.00269 0.00169742 0)
(1.00293 0.00186364 0)
(1.00309 0.00201393 0)
(1.00319 0.00216343 0)
(1.00312 0.00229708 0)
(1.00004 -1.29141e-05 0)
(1.00002 -2.74994e-05 0)
(1.00021 -1.58981e-05 0)
(1.00035 2.91488e-05 0)
(1.00057 0.000103899 0)
(1.00073 0.00020581 0)
(1.00093 0.000324726 0)
(1.00108 0.00045787 0)
(1.00129 0.000597993 0)
(1.00144 0.000748007 0)
(1.00168 0.000887706 0)
(1.00186 0.00104359 0)
(1.00212 0.00120128 0)
(1.00234 0.00135072 0)
(1.00261 0.00151394 0)
(1.00285 0.001659 0)
(1.00309 0.00181115 0)
(1.00327 0.00194773 0)
(1.00337 0.00208139 0)
(1.0033 0.00220446 0)
(1.00004 -3.97469e-06 0)
(1.00002 -1.1841e-06 0)
(1.00022 2.25591e-05 0)
(1.00038 7.03817e-05 0)
(1.00061 0.000142035 0)
(1.00078 0.000238794 0)
(1.001 0.000354712 0)
(1.00116 0.000482635 0)
(1.00137 0.000614684 0)
(1.00153 0.000761506 0)
(1.00178 0.00089645 0)
(1.00198 0.00103878 0)
(1.00224 0.00119224 0)
(1.00248 0.00132682 0)
(1.00276 0.00147653 0)
(1.003 0.00161143 0)
(1.00326 0.00174676 0)
(1.00343 0.00187383 0)
(1.00354 0.00198961 0)
(1.00346 0.00210436 0)
(1.00004 5.12831e-06 0)
(1.00003 2.5671e-05 0)
(1.00024 5.90195e-05 0)
(1.0004 0.000110581 0)
(1.00065 0.000180643 0)
(1.00083 0.000271064 0)
(1.00106 0.000379856 0)
(1.00123 0.000503005 0)
(1.00145 0.000627016 0)
(1.00162 0.000764845 0)
(1.00188 0.000896986 0)
(1.00209 0.0010257 0)
(1.00236 0.0011699 0)
(1.0026 0.00129807 0)
(1.0029 0.00142818 0)
(1.00315 0.00155429 0)
(1.00341 0.00167383 0)
(1.00358 0.00179064 0)
(1.0037 0.00189219 0)
(1.00362 0.00199444 0)
(1.00004 1.39885e-05 0)
(1.00003 5.12725e-05 0)
(1.00025 9.48445e-05 0)
(1.00043 0.000149473 0)
(1.00068 0.000217523 0)
(1.00088 0.000302256 0)
(1.00112 0.000402474 0)
(1.00129 0.000517188 0)
(1.00153 0.000634401 0)
(1.0017 0.00076161 0)
(1.00197 0.000888114 0)
(1.00219 0.00100639 0)
(1.00248 0.00113434 0)
(1.00272 0.00125793 0)
(1.00303 0.00137271 0)
(1.00328 0.00148443 0)
(1.00355 0.00159162 0)
(1.00372 0.00169466 0)
(1.00384 0.00178733 0)
(1.00376 0.00187457 0)
(1.00004 2.26391e-05 0)
(1.00004 7.56871e-05 0)
(1.00026 0.000129158 0)
(1.00044 0.000186863 0)
(1.00071 0.000252287 0)
(1.00091 0.000330444 0)
(1.00116 0.000422425 0)
(1.00135 0.000527596 0)
(1.0016 0.000635665 0)
(1.00178 0.000751111 0)
(1.00205 0.000869607 0)
(1.00229 0.000979116 0)
(1.00258 0.00108994 0)
(1.00283 0.00120161 0)
(1.00314 0.00130814 0)
(1.0034 0.00140445 0)
(1.00367 0.00149936 0)
(1.00385 0.00158871 0)
(1.00396 0.00167202 0)
(1.00389 0.00174814 0)
(1.00004 3.06033e-05 0)
(1.00004 9.83077e-05 0)
(1.00027 0.000160843 0)
(1.00045 0.000220746 0)
(1.00073 0.000284278 0)
(1.00094 0.000355601 0)
(1.0012 0.000437664 0)
(1.0014 0.00053288 0)
(1.00165 0.000631723 0)
(1.00185 0.000734003 0)
(1.00213 0.000840893 0)
(1.00237 0.000941824 0)
(1.00267 0.00104013 0)
(1.00293 0.00113389 0)
(1.00324 0.0012299 0)
(1.0035 0.00131524 0)
(1.00378 0.00139524 0)
(1.00396 0.00147254 0)
(1.00408 0.00154264 0)
(1.004 0.00161036 0)
(1.00004 3.79315e-05 0)
(1.00004 0.000117911 0)
(1.00027 0.00018913 0)
(1.00046 0.000250855 0)
(1.00074 0.000312021 0)
(1.00096 0.000377048 0)
(1.00123 0.000449948 0)
(1.00144 0.000533281 0)
(1.0017 0.000621756 0)
(1.00191 0.000713031 0)
(1.00219 0.000804358 0)
(1.00244 0.00089265 0)
(1.00274 0.000982296 0)
(1.00301 0.00105938 0)
(1.00332 0.00113848 0)
(1.00359 0.00121366 0)
(1.00387 0.00127906 0)
(1.00405 0.00134448 0)
(1.00417 0.00140095 0)
(1.00409 0.00145812 0)
(1.00004 4.40471e-05 0)
(1.00004 0.000134294 0)
(1.00027 0.000212781 0)
(1.00046 0.000276609 0)
(1.00074 0.000334823 0)
(1.00096 0.000393532 0)
(1.00124 0.00045861 0)
(1.00146 0.000530759 0)
(1.00173 0.000605691 0)
(1.00195 0.000687281 0)
(1.00224 0.000766469 0)
(1.00249 0.00083613 0)
(1.0028 0.000915594 0)
(1.00306 0.000981405 0)
(1.00339 0.00104178 0)
(1.00365 0.00110369 0)
(1.00393 0.00115549 0)
(1.00411 0.00120862 0)
(1.00423 0.00125274 0)
(1.00415 0.00129717 0)
(1.00004 4.84832e-05 0)
(1.00004 0.000146238 0)
(1.00027 0.000230102 0)
(1.00045 0.000296364 0)
(1.00073 0.000352654 0)
(1.00096 0.000405097 0)
(1.00125 0.000460705 0)
(1.00147 0.000524908 0)
(1.00175 0.000586351 0)
(1.00198 0.000653054 0)
(1.00226 0.000727516 0)
(1.00252 0.000780536 0)
(1.00284 0.000842895 0)
(1.0031 0.000901973 0)
(1.00342 0.000946076 0)
(1.00368 0.000992942 0)
(1.00396 0.00102993 0)
(1.00415 0.00106882 0)
(1.00427 0.00110031 0)
(1.00419 0.00113053 0)
(1.00004 5.12628e-05 0)
(1.00004 0.000151502 0)
(1.00026 0.000239401 0)
(1.00044 0.000307381 0)
(1.00071 0.000363821 0)
(1.00094 0.00041301 0)
(1.00124 0.000458994 0)
(1.00147 0.000512535 0)
(1.00175 0.000567498 0)
(1.00199 0.000613194 0)
(1.00227 0.000679288 0)
(1.00253 0.000727798 0)
(1.00286 0.000766685 0)
(1.00311 0.000819071 0)
(1.00343 0.000850932 0)
(1.00369 0.000883579 0)
(1.00397 0.00090615 0)
(1.00415 0.000927098 0)
(1.00426 0.000945771 0)
(1.00419 0.000958225 0)
(1.00004 5.03046e-05 0)
(1.00004 0.000149343 0)
(1.00025 0.000236445 0)
(1.00043 0.000305784 0)
(1.0007 0.000363397 0)
(1.00092 0.000414582 0)
(1.00122 0.000459787 0)
(1.00145 0.000503128 0)
(1.00174 0.000555988 0)
(1.00199 0.000588644 0)
(1.00228 0.000630963 0)
(1.00252 0.000679909 0)
(1.00285 0.000698625 0)
(1.00311 0.000733698 0)
(1.00341 0.000758068 0)
(1.00366 0.000775418 0)
(1.00393 0.00079074 0)
(1.00411 0.000794526 0)
(1.00421 0.000805273 0)
(1.00413 0.000804103 0)
(1.00004 4.73245e-05 0)
(1.00004 0.000136526 0)
(1.00025 0.000217071 0)
(1.00042 0.000282254 0)
(1.00068 0.000337863 0)
(1.00091 0.000386029 0)
(1.0012 0.00043572 0)
(1.00144 0.000475429 0)
(1.00172 0.00052591 0)
(1.00196 0.000565982 0)
(1.00227 0.000588521 0)
(1.0025 0.000625517 0)
(1.00282 0.000636045 0)
(1.00308 0.00063274 0)
(1.00338 0.00063361 0)
(1.00362 0.000612822 0)
(1.00387 0.000597343 0)
(1.00405 0.000564118 0)
(1.00415 0.00053948 0)
(1.00407 0.000509134 0)
(1.00004 4.51862e-05 0)
(1.00004 0.000121242 0)
(1.00025 0.000204758 0)
(1.00041 0.000266261 0)
(1.00067 0.000331894 0)
(1.00089 0.000382651 0)
(1.00119 0.000448168 0)
(1.00143 0.00050184 0)
(1.00172 0.000567476 0)
(1.00194 0.000636897 0)
(1.00224 0.000691673 0)
(1.00246 0.000741202 0)
(1.00273 0.000791238 0)
(1.00297 0.000797006 0)
(1.00323 0.000799081 0)
(1.00344 0.000760355 0)
(1.00366 0.000702602 0)
(1.00381 0.00060803 0)
(1.0039 0.000490163 0)
(1.00382 0.000355718 0)
(1.00004 2.20291e-05 0)
(1.00004 5.7993e-05 0)
(1.00025 0.000103144 0)
(1.00041 0.0001347 0)
(1.00068 0.000174011 0)
(1.00091 0.000203189 0)
(1.00122 0.000243233 0)
(1.00147 0.000277722 0)
(1.00178 0.000318517 0)
(1.00202 0.00036336 0)
(1.00232 0.000408755 0)
(1.00255 0.000445217 0)
(1.0028 0.000490452 0)
(1.00297 0.00051041 0)
(1.00316 0.000522674 0)
(1.00324 0.000509073 0)
(1.00331 0.000474191 0)
(1.00326 0.000411217 0)
(1.00316 0.000322604 0)
(1.00292 0.000216246 0)
(0.984632 0.00211934 0)
(0.960424 0.0032856 0)
(0.93606 0.00363121 0)
(0.911279 0.00360305 0)
(0.886103 0.00353281 0)
(0.860499 0.00350965 0)
(0.834497 0.00350922 0)
(0.808094 0.00350281 0)
(0.781329 0.00348184 0)
(0.754131 0.00345155 0)
(0.726485 0.00341704 0)
(0.698325 0.00338443 0)
(0.66964 0.00334667 0)
(0.640471 0.0032996 0)
(0.610844 0.00324973 0)
(0.580737 0.00318712 0)
(0.550238 0.00311694 0)
(0.519318 0.00304467 0)
(0.488079 0.00295464 0)
(0.45667 0.00284358 0)
(0.425263 0.00271662 0)
(0.394058 0.0025522 0)
(0.363524 0.00233972 0)
(0.334237 0.00205847 0)
(0.306998 0.00166174 0)
(0.282767 0.00116387 0)
(0.262526 0.000570923 0)
(0.246958 5.58138e-05 0)
(0.23591 -0.000288908 0)
(0.228283 -0.000452908 0)
(0.222909 -0.000504628 0)
(0.218985 -0.0004794 0)
(0.215958 -0.000443262 0)
(0.21342 -0.000397399 0)
(0.211165 -0.000341166 0)
(0.208982 -0.000285925 0)
(0.206735 -0.000234151 0)
(0.204377 -0.000188365 0)
(0.201902 -0.000152331 0)
(0.19931 -0.000119194 0)
(0.196648 -9.37669e-05 0)
(0.193895 -7.17091e-05 0)
(0.191109 -5.28553e-05 0)
(0.188271 -3.9099e-05 0)
(0.185435 -2.63895e-05 0)
(0.182597 -1.84978e-05 0)
(0.179795 -1.08303e-05 0)
(0.177032 -3.93877e-06 0)
(0.174346 -1.0768e-06 0)
(0.171711 3.42967e-06 0)
(0.169156 9.08818e-06 0)
(0.166639 1.24768e-05 0)
(0.164191 1.41363e-05 0)
(0.161798 1.6243e-05 0)
(0.159487 1.81658e-05 0)
(0.157219 1.88437e-05 0)
(0.155064 1.94473e-05 0)
(0.15297 1.96911e-05 0)
(0.150958 2.01777e-05 0)
(0.148975 2.18669e-05 0)
(0.147082 2.06882e-05 0)
(0.145237 1.89127e-05 0)
(0.14349 2.02643e-05 0)
(0.141778 1.98731e-05 0)
(0.140164 1.77677e-05 0)
(0.138581 1.70453e-05 0)
(0.137093 1.64658e-05 0)
(0.135634 1.66187e-05 0)
(0.134288 1.53022e-05 0)
(0.132984 1.27651e-05 0)
(0.131783 1.27913e-05 0)
(0.13059 1.24866e-05 0)
(0.129511 1.13093e-05 0)
(0.128435 1.15359e-05 0)
(0.127469 9.29621e-06 0)
(0.126552 6.6441e-06 0)
(0.125751 8.34472e-06 0)
(0.124899 8.69561e-06 0)
(0.124166 6.05886e-06 0)
(0.123477 4.56932e-06 0)
(0.122902 5.23787e-06 0)
(0.122277 5.30493e-06 0)
(0.121763 4.06546e-06 0)
(0.121254 2.90862e-06 0)
(0.120862 3.05171e-06 0)
(0.120421 3.07678e-06 0)
(0.120094 2.12011e-06 0)
(0.119738 1.69674e-06 0)
(0.11949 1.92346e-06 0)
(0.119183 1.46117e-06 0)
(0.118999 1.03654e-06 0)
(0.118751 1.01411e-06 0)
(0.118618 1.00149e-06 0)
(0.118404 7.16301e-07 0)
(0.118325 5.88808e-07 0)
(0.118138 6.28711e-07 0)
(0.118103 5.80049e-07 0)
(0.117911 6.98853e-07 0)
(0.117926 1.10389e-06 0)
(0.11763 1.89798e-06 0)
(0.997062 0.00411699 0)
(0.996053 0.00589662 0)
(0.994783 0.00652205 0)
(0.993139 0.006486 0)
(0.991095 0.00634455 0)
(0.988446 0.00630335 0)
(0.985251 0.00634216 0)
(0.981407 0.00640679 0)
(0.977001 0.00646315 0)
(0.971888 0.00651008 0)
(0.966087 0.00655203 0)
(0.959463 0.00659797 0)
(0.952023 0.00664684 0)
(0.943714 0.00668917 0)
(0.934525 0.00673384 0)
(0.924414 0.00677297 0)
(0.913325 0.00680637 0)
(0.901263 0.00683284 0)
(0.888137 0.00684614 0)
(0.874028 0.00683003 0)
(0.858909 0.00678053 0)
(0.842825 0.00668206 0)
(0.825942 0.00651117 0)
(0.808449 0.00623481 0)
(0.790741 0.0057903 0)
(0.773196 0.00517397 0)
(0.756478 0.0043897 0)
(0.740951 0.00354771 0)
(0.726988 0.00276041 0)
(0.714254 0.00213366 0)
(0.702542 0.00169536 0)
(0.691456 0.00140312 0)
(0.680909 0.0012023 0)
(0.670734 0.00105086 0)
(0.660797 0.000944132 0)
(0.651115 0.000879314 0)
(0.641526 0.00083892 0)
(0.632011 0.000808889 0)
(0.622636 0.000784376 0)
(0.61326 0.000759033 0)
(0.60406 0.000733972 0)
(0.594876 0.000712973 0)
(0.58583 0.000688214 0)
(0.576853 0.000664549 0)
(0.568002 0.0006401 0)
(0.559263 0.000613344 0)
(0.550673 0.000587049 0)
(0.542186 0.000554733 0)
(0.533981 0.000527114 0)
(0.525879 0.00050013 0)
(0.517966 0.000471668 0)
(0.510272 0.000451337 0)
(0.50279 0.000426847 0)
(0.495402 0.00040312 0)
(0.488317 0.000384885 0)
(0.48134 0.000360336 0)
(0.474644 0.000336742 0)
(0.468141 0.000319339 0)
(0.461862 0.000302106 0)
(0.45568 0.000287198 0)
(0.449827 0.000270676 0)
(0.444065 0.000253496 0)
(0.438554 0.000239791 0)
(0.433171 0.000224603 0)
(0.428096 0.000211823 0)
(0.423094 0.000201425 0)
(0.418335 0.000187271 0)
(0.413656 0.000175197 0)
(0.409352 0.00016195 0)
(0.405113 0.000149024 0)
(0.401166 0.000143188 0)
(0.397274 0.000132281 0)
(0.393671 0.000119325 0)
(0.390138 0.000115288 0)
(0.387001 0.000104588 0)
(0.383859 8.98798e-05 0)
(0.381017 8.7799e-05 0)
(0.378209 8.4217e-05 0)
(0.37577 7.17416e-05 0)
(0.373341 6.22765e-05 0)
(0.37124 5.98314e-05 0)
(0.369102 5.64493e-05 0)
(0.367318 4.89989e-05 0)
(0.3655 4.16447e-05 0)
(0.364018 3.87706e-05 0)
(0.362466 3.59309e-05 0)
(0.361262 3.03531e-05 0)
(0.359947 2.64057e-05 0)
(0.358982 2.47514e-05 0)
(0.357878 2.1185e-05 0)
(0.357134 1.79864e-05 0)
(0.356203 1.59603e-05 0)
(0.355654 1.43839e-05 0)
(0.354858 1.18113e-05 0)
(0.354499 1.03506e-05 0)
(0.353791 8.80114e-06 0)
(0.353616 8.28386e-06 0)
(0.352927 6.86264e-06 0)
(0.352939 7.66359e-06 0)
(0.352171 1.1264e-05 0)
(0.997399 0.00358887 0)
(0.996799 0.00473688 0)
(0.996456 0.0054142 0)
(0.996338 0.00555825 0)
(0.996411 0.00550486 0)
(0.996449 0.00549241 0)
(0.996482 0.00556753 0)
(0.996418 0.00570407 0)
(0.996354 0.00585753 0)
(0.996148 0.00601896 0)
(0.995845 0.0061805 0)
(0.995302 0.00635178 0)
(0.994566 0.0065295 0)
(0.993558 0.00670329 0)
(0.9923 0.00687923 0)
(0.990741 0.00705032 0)
(0.988838 0.00721489 0)
(0.986579 0.00736951 0)
(0.983895 0.00751728 0)
(0.980808 0.00762575 0)
(0.977255 0.00769983 0)
(0.973224 0.00771588 0)
(0.968726 0.00764499 0)
(0.963744 0.00744351 0)
(0.958395 0.00706092 0)
(0.952684 0.00647168 0)
(0.94689 0.00569052 0)
(0.941023 0.00480046 0)
(0.935361 0.00392466 0)
(0.929728 0.00321029 0)
(0.924267 0.00272355 0)
(0.918745 0.00241975 0)
(0.913311 0.0022296 0)
(0.907795 0.00210076 0)
(0.902262 0.00202315 0)
(0.896659 0.00197853 0)
(0.890963 0.00196436 0)
(0.885149 0.0019516 0)
(0.879225 0.00193599 0)
(0.873149 0.00191998 0)
(0.866993 0.0018911 0)
(0.860615 0.00186761 0)
(0.854218 0.00183689 0)
(0.847533 0.00179959 0)
(0.840877 0.00176349 0)
(0.833982 0.00171684 0)
(0.827065 0.00167359 0)
(0.820033 0.00161997 0)
(0.812933 0.00155904 0)
(0.805789 0.0015106 0)
(0.798591 0.00145608 0)
(0.791283 0.00140084 0)
(0.7841 0.00135011 0)
(0.776678 0.0012957 0)
(0.76942 0.00124606 0)
(0.762049 0.00119182 0)
(0.754759 0.00113148 0)
(0.747473 0.00108089 0)
(0.740274 0.0010356 0)
(0.732974 0.000990044 0)
(0.725931 0.000939666 0)
(0.718763 0.000891469 0)
(0.711827 0.000852276 0)
(0.70483 0.000805395 0)
(0.698066 0.000758767 0)
(0.691325 0.00072492 0)
(0.684778 0.0006867 0)
(0.67815 0.00064477 0)
(0.671997 0.000602652 0)
(0.665725 0.000561294 0)
(0.659771 0.000530914 0)
(0.653923 0.00049991 0)
(0.648345 0.000463112 0)
(0.642696 0.00043147 0)
(0.637657 0.000395462 0)
(0.632554 0.000361463 0)
(0.627782 0.000342485 0)
(0.623049 0.000317265 0)
(0.618844 0.000281608 0)
(0.614608 0.000254542 0)
(0.610812 0.000237374 0)
(0.606977 0.000217643 0)
(0.603678 0.000193795 0)
(0.600314 0.000172079 0)
(0.59743 0.000156795 0)
(0.59447 0.000141645 0)
(0.592062 0.000124467 0)
(0.589465 0.000110305 0)
(0.587444 9.98336e-05 0)
(0.585203 8.69278e-05 0)
(0.583579 7.6312e-05 0)
(0.581614 6.70045e-05 0)
(0.580359 5.98481e-05 0)
(0.578631 5.0346e-05 0)
(0.57774 4.50079e-05 0)
(0.57617 3.75651e-05 0)
(0.575641 3.48327e-05 0)
(0.57415 2.85551e-05 0)
(0.573972 2.75637e-05 0)
(0.572465 3.20383e-05 0)
(0.997847 0.00340666 0)
(0.997228 0.00438744 0)
(0.996798 0.00517993 0)
(0.99664 0.00557825 0)
(0.996758 0.00567827 0)
(0.996941 0.005709 0)
(0.997196 0.00577283 0)
(0.997434 0.00589246 0)
(0.997773 0.00603678 0)
(0.99808 0.0062026 0)
(0.998439 0.00637211 0)
(0.998706 0.00655121 0)
(0.998977 0.00673107 0)
(0.999168 0.00691033 0)
(0.99936 0.00709047 0)
(0.999491 0.00727045 0)
(0.999589 0.00744429 0)
(0.999627 0.00761755 0)
(0.999602 0.00778227 0)
(0.999535 0.00791131 0)
(0.999392 0.00800274 0)
(0.99917 0.00803833 0)
(0.998863 0.00797221 0)
(0.998402 0.00777273 0)
(0.997832 0.0073964 0)
(0.997017 0.00682864 0)
(0.996094 0.0060806 0)
(0.99488 0.00522812 0)
(0.993582 0.00438219 0)
(0.991982 0.00367505 0)
(0.99034 0.00317976 0)
(0.988501 0.00287406 0)
(0.986686 0.00268343 0)
(0.984764 0.00257067 0)
(0.982846 0.00250265 0)
(0.98087 0.00246389 0)
(0.978872 0.00244605 0)
(0.976785 0.00242821 0)
(0.974677 0.00241175 0)
(0.972414 0.00239104 0)
(0.970167 0.0023674 0)
(0.967679 0.00234677 0)
(0.965245 0.00232419 0)
(0.962509 0.00229715 0)
(0.959795 0.00226523 0)
(0.956832 0.00223105 0)
(0.953811 0.00219192 0)
(0.950635 0.0021446 0)
(0.947373 0.00209308 0)
(0.943951 0.00204675 0)
(0.940498 0.00200181 0)
(0.936792 0.00195201 0)
(0.933157 0.00190571 0)
(0.929199 0.00185834 0)
(0.925292 0.00181024 0)
(0.92118 0.00176027 0)
(0.917043 0.00169945 0)
(0.912712 0.00164552 0)
(0.908437 0.00160313 0)
(0.903875 0.00155522 0)
(0.899458 0.00149956 0)
(0.894767 0.00144749 0)
(0.890155 0.00140218 0)
(0.885356 0.00135009 0)
(0.880639 0.0012933 0)
(0.875725 0.00124828 0)
(0.870971 0.00120564 0)
(0.865919 0.00115106 0)
(0.861161 0.00109107 0)
(0.856171 0.00104114 0)
(0.851315 0.000995996 0)
(0.846381 0.000944575 0)
(0.841662 0.000897304 0)
(0.836665 0.000851242 0)
(0.832118 0.000789726 0)
(0.827359 0.000737413 0)
(0.822833 0.000706255 0)
(0.818209 0.000661256 0)
(0.814002 0.000601465 0)
(0.809608 0.000555346 0)
(0.805618 0.000523124 0)
(0.801451 0.000484674 0)
(0.797787 0.000439897 0)
(0.793919 0.000399912 0)
(0.790561 0.00036936 0)
(0.786963 0.000336296 0)
(0.784019 0.000302889 0)
(0.780686 0.000273541 0)
(0.778095 0.000249951 0)
(0.775043 0.000221401 0)
(0.772869 0.000199354 0)
(0.770041 0.000176721 0)
(0.768282 0.000160256 0)
(0.765657 0.00013779 0)
(0.764341 0.000125502 0)
(0.76186 0.000106508 0)
(0.761008 9.86721e-05 0)
(0.758598 8.24476e-05 0)
(0.758219 7.74956e-05 0)
(0.755791 7.5106e-05 0)
(0.998202 0.00342973 0)
(0.99758 0.00430068 0)
(0.997087 0.00507894 0)
(0.996836 0.00558219 0)
(0.996899 0.00576646 0)
(0.997071 0.00581694 0)
(0.997344 0.00585236 0)
(0.997603 0.00592551 0)
(0.997972 0.00602687 0)
(0.998312 0.00616292 0)
(0.998722 0.00632102 0)
(0.999051 0.00649583 0)
(0.999418 0.00667489 0)
(0.999722 0.00685469 0)
(1.00008 0.00703809 0)
(1.00041 0.00721911 0)
(1.00077 0.00739575 0)
(1.00112 0.00756736 0)
(1.00151 0.00773112 0)